composition,critical_temperature_tc
Lu0.5Pr0.5Ba2Cu3O7-z,29.0
Lu0.45Pr0.55Ba2Cu3O7-z,13.0
Hg1Ba2Cu1O4+z,94.0
Ba2Ca3Cu5O,106.0
Hg1Ba2Ca1Cu2O6+z,126.6
Hg1Ba2Ca2Cu3O8+z,133.9
Y0.95Pr0.05Ba2Cu4O8,77.0
Y0.9Pr0.1Ba2Cu4O8,74.6
Y0.85Pr0.15Ba2Cu4O8,72.3
Y0.8Pr0.2Ba2Cu4O8,70.8
Y0.9Ca0.1Ba2Cu4O8,88.8
Y0.85Pr0.05Ca0.1Ba2Cu4O8,83.8
Y0.8Pr0.1Ca0.1Ba2Cu4O8,80.0
Y0.75Pr0.15Ca0.1Ba2Cu4O8,76.2
Y0.7Pr0.2Ca0.1Ba2Cu4O8,73.4
La1Nd0.91Ce0.09Cu1O3.97,15.7
La1Nd0.9Ce0.1Cu1O3.974,19.9
La1Nd0.89Ce0.11Cu1O3.978,19.8
La1Nd0.87Ce0.13Cu1O3.975,16.8
La1Nd0.86Ce0.14Cu1O3.978,16.0
La1Nd0.85Ce0.15Cu1O4,8.8
Tl2Ba2Ca1Cu2O8,102.0
Tl2Ba2Ca2Cu3O10+z,116.0
Hg0.8Pb0.2Ba2Cu1O4+z,96.0
Y1Ba2Cu2.984Zn0.016O7-z,84.0
Y1Ba2Cu2.948Zn0.052O7-z,73.0
Y1Ba2Cu2.909Zn0.091O7-z,55.0
Y1Ba2Cu2.892Zn0.108O7-z,48.0
Ba0.65K0.35Bi1O2.984,27.9
Ba0.525K0.475Bi1O2.917,25.9
Ba0.6K0.4Bi1O2.926,27.6
Bi2Sr2Ca1Cu2O8.16,92.8
Tl2Ba2Cu1O6.1,92.5
Tl2Ba2Ca1Cu2O8+z,106.8
Tl2Ba2Ca2Cu3O10+z,120.0
Bi2Sr2Ca1Cu2O8.11,86.5
Bi2Sr2Ca1Cu2O8.19,87.1
Bi2Sr2Ca1Cu2O8.22,77.6
Bi2Sr2Ca1Cu2O8.24,71.1
Cu5Ba2Ca3O12-z,116.3
La1.9Sr0.1Cu1O4,27.8
La1.85Sr0.15Cu0.965Ni0.035O4,2.1
La1.83Sr0.17Cu0.98Ni0.02O4,22.1
La1.83Sr0.17Cu0.97Ni0.03O4,14.4
La1.83Sr0.17Cu0.96Ni0.04O4,5.8
La1.8Sr0.2Cu1O4,31.0
La1.8Sr0.2Cu0.98Ni0.02O4,17.1
La1.8Sr0.2Cu0.97Ni0.03O4,11.1
La1.8Sr0.2Cu0.96Ni0.04O4,7.0
La1.75Sr0.25Cu1O4,16.2
La1.75Sr0.25Cu0.96Ni0.04O4,33.6
Bi2Sr2Ca1Cu2O8.231,83.7
Bi2Sr2Ca1Cu2O8.329,47.3
Bi2Sr2Ca1Cu2O8.373,47.2
Bi2Sr2Ca1Cu2O8.428,42.1
Bi2Sr2Ca1Cu2O8.256,67.2
Y2Ba4Cu7O15-z,78.8
Y1.8Pr0.2Ba4Cu7O15-z,64.3
Y1.2Pr0.8Ba4Cu7O15-z,54.0
Y0.8Pr1.2Ba4Cu7O15-z,40.0
La1.935Sr0.065Cu1Cl0.05O4-z,14.0
La1.9Sr0.1Cu1Cl0.1O3.9-z,21.0
La1.8Sr0.2Cu1Cl0.2O3.8-z,32.0
Bi2Sr2Y1.65Ce0.35Cu2O10+z,17.9
Bi1.8Pb0.2Sr2Y1.65Ce0.35Cu2O10+z,20.0
Bi1.6Pb0.4Sr2Y1.65Ce0.35Cu2O10+z,21.4
Bi1.4Pb0.6Sr2Y1.65Ce0.35Cu2O10+z,23.5
Bi1.2Pb0.8Sr2Y1.65Ce0.35Cu2O10+z,27.0
Bi1Pb1Sr2Y1.65Ce0.35Cu2O10+z,25.0
La1.4Ba1.27Ca0.33Cu3Oz,68.0
La1.3Ba1.37Ca0.33Cu3Oz,61.0
La1.2Ba1.47Ca0.33Cu3Oz,53.0
La1.1Ba1.57Ca0.33Cu3Oz,43.0
La1.4Ba1.4Ca0.2Cu3Oz,30.0
La1.3Ba1.3Ca0.4Cu3Oz,58.0
La1Ba1.5Ca0.5Cu3Oz,77.0
La1.5Ba1Ca0.5Cu3Oz,50.0
La2Cu1O4,41.2
La1.95Ba0.05Cu1O4,33.6
La1.92Ba0.08Cu1O4,31.1
La1.875Ba0.125Cu1O4,28.4
La1.855Ba0.145Cu1O4,30.3
La1.84Ba0.16Cu1O4,29.8
La1.8Ba0.2Cu1O4,16.5
Na1N1C60,14.7
Bi2Sr2Ca1Cu2O8+z,85.4
Y0.985Ca0.015Ba2Cu3O6.98,89.9
Y0.97Ca0.03Ba2Cu3O6.97,86.7
Y0.94Ca0.06Ba2Cu3O6.97,83.4
Y1Ba1.9La0.1Cu3O6.96,93.5
Y1Ba1.89La0.11Cu3O6.96,93.6
Y1Ba1.88La0.12Cu3O6.96,93.2
Y1Ba1.86La0.14Cu3O6.96,91.9
Y1Ba1.96La0.04Cu3O6.96,93.6
Y1Ba1.95La0.05Cu3O6.96,93.8
Y1Ba1.94La0.06Cu3O6.96,94.0
Y1Ba1.92La0.08Cu3O6.96,94.0
Y1Ba2Cu3O6.96,91.3
Y1Ba1.99La0.01Cu3O6.96,92.1
Y1Ba1.98La0.02Cu3O6.96,92.6
Y1Ba1.97La0.03Cu3O6.96,93.2
La1.875Ba0.125Cu1O4,4.0
La1.875Ba0.125Cu1O4,30.0
Ba0.55K0.45Bi1O3,22.5
Ba0.55K0.45Bi1O3,20.0
Sr1Cu1O2,91.0
Ca0.285Sr0.665Cu1O2,110.0
Sr0.92Sm0.08Cu1O2,43.0
Y1.2Pr0.8Ba4Cu7O15-z,40.0
Sr0.9La0.1Cu1O2,43.0
Bi1.95Sr1.65La0.4Cu1O6+z,15.0
Tl0.5Pb0.5Sr2Ca1Cu2O7,82.0
Hg0.67Tl1.33Ba2Ca1Cu2O8+z,100.0
La1.9Sr0.1Cu1H0.1O4,28.9
La1.85Sr0.15Cu1H0.1O4,35.4
La1.8Sr0.2Cu1H0.1O4,35.5
La1.75Sr0.25Cu1H0.1O4,26.8
Y1Sr2Cu2.7Ti0.3O7.224,35.0
Y1Sr2Cu2.7Ti0.3O7.152,23.0
Y1Sr2Cu2.7Ti0.3O7.144,12.0
Sr0.95Y0.05Cu1O2,38.6
Sr0.9Y0.1Cu1O2,36.6
Sr0.85Y0.15Cu1O2,36.6
Sr0.8Y0.2Cu1O2,38.6
Sr0.75Y0.25Cu1O2,38.6
Sr0.7Y0.3Cu1O2,32.6
Tl2Ba2Cu1O6+z,78.0
Tl2Ba2Cu1O6+z,83.0
Tl1Sr2Ca1Cu2O7,73.0
Bi1.6Pb0.4Sr4Cu2C1O11,41.0
Bi1.6Pb0.4Sr6Cu3C2O16,54.0
Sr2Cu1C0.85B0.15O5,32.0
Sr15.9Ca7.6Cu17.6C3.3B2.6O53,105.0
Sr16.7Ca7.7Cu19.4C1.9B2.9O51.7,115.0
Pr1.85Ce0.15Cu1O4,20.9
Sm1.85Ce0.15Cu1O4,21.9
Nd1.85Ce0.15Cu1O4,26.4
Sr0.9La0.1Cu1O2,40.7
Sr0.9La0.1Cu1O2,40.6
Sr0.9La0.1Cu1O2,40.8
C0.5Ba2Ca2Cu3.5O9+z,67.0
C0.5Ba2Ca3Cu4.5O11+z,117.0
La1.945Rb0.055Cu1O4,22.0
La1.935K0.065Cu1O4,20.0
La1.929Na0.071Cu1O4,28.0
Y1Ba2Cu3O7-z,87.0
Y1Ba2Cu2.949Co0.051O7-z,81.0
Y1Ba2Cu2.871Co0.129O7-z,68.0
Y1Ba2Cu3O7.01,89.5
Y1Ba2Cu3O6.84,67.0
Y1Ba2Cu3O6.63,51.0
Tl1Ba2Ca3Cu4O11,114.0
Bi1.95Sr1.85La0.2Cu1O4,27.0
Bi1.95Sr1.75La0.3Cu1O4,33.0
Bi1.95Sr1.65La0.4Cu1O4,36.0
Bi1.95Sr1.45La0.6Cu1O4,24.0
Bi1.95Sr1.25La0.8Cu1O4,19.0
Bi1.95Sr1.85Pr0.2Cu1O4,28.0
Bi1.95Sr1.75Pr0.3Cu1O4,32.0
Bi1.95Sr1.65Pr0.4Cu1O4,35.0
Bi1.95Sr1.45Pr0.6Cu1O4,22.0
Bi1.95Sr1.25Pr0.8Cu1O4,17.0
Bi1.95Sr1.85Nd0.2Cu1O4,26.0
Bi1.95Sr1.75Nd0.3Cu1O4,30.0
Bi1.95Sr1.65Nd0.4Cu1O4,35.0
Bi1.95Sr1.45Nd0.6Cu1O4,18.0
Bi1.6Pb0.4Sr1.6La0.4Cu1O4,36.0
Yb1Ba2Cu3O6.95,88.4
Yb0.95Pr0.05Ba2Cu3O6.9,89.1
Yb0.9Pr0.1Ba2Cu3O6.92,88.0
Yb0.8Pr0.2Ba2Cu3O6.88,79.9
Yb0.7Pr0.3Ba2Cu3O6.87,67.2
Yb0.6Pr0.4Ba2Cu3O6.91,50.5
Yb0.5Pr0.5Ba2Cu3O6.9,34.8
Yb0.45Pr0.55Ba2Cu3O6.92,18.3
La1.83Sr0.17Cu1O4,36.4
La1.83Sr0.17Cu0.98Ni0.02O4,22.8
La1.83Sr0.17Cu0.97Ni0.03O4,15.2
La1.83Sr0.17Cu0.65Ni0.35O4,13.5
La1.83Sr0.17Cu0.96Ni0.04O4,7.7
La1.8Sr0.2Cu1O4,28.0
La1.8Sr0.2Cu0.99Ni0.01O4,23.4
La1.8Sr0.2Cu0.98Ni0.02O4,16.8
La1.8Sr0.2Cu0.97Ni0.03O4,10.9
La1.8Sr0.2Cu0.65Ni0.35O4,8.0
La1.8Sr0.2Cu0.96Ni0.04O4,5.1
La1.9Sr0.1Cu1O4,29.4
La1.9Sr0.1Cu0.99Ni0.01O4,11.5
La0.75Sr0.25Cu1O4,14.4
La1.75Sr0.25Cu0.98Ni0.02O4,8.1
La1.75Sr0.25Cu0.97Ni0.03O4,4.7
La1.75Sr0.25Cu0.96Ni0.04O4,2.5
La1.85Sr0.15Cu0.96Ni0.04O4,0.001
La1.83Sr0.17Cu0.96Ni0.04O4,8.2
La1.8Sr0.2Cu0.96Ni0.04O4,7.6
La1.95Sr0.05Cu1O4,0.001
La1.83Sr0.17Cu1O4,37.2
La1.8Sr0.2Cu1O4,31.4
La1.75Sr0.25Cu1O4,16.8
La1.92Sr0.08Cu0.99Ni0.01O4,0.001
La1.9Sr0.1Cu0.99Ni0.01O4,13.1
La1.83Sr0.17Cu0.99Ni0.01O4,31.2
La1.8Sr0.2Cu0.99Ni0.01O4,24.5
C1Ba3Ca3Cu5O13,113.0
C1Ba3Ca3Cu5O13,110.0
Hg0.5Tl0.5Ba2Ca0.86Sr0.14Cu2O6+z,122.0
Hg0.5Tl0.5Ba2Ca0.86Sr0.14Cu2O6+z,100.0
Sm1Ba2Cu3O6.85,90.4
Sm1Ba2Cu3O6.73,45.0
Sm1.27Ba1.73Cu3O7.05,50.0
Tm1.83Ca0.17Cu1O3.99,30.0
Y0.7Ca0.3Sr2Cu2.5Se0.5O7-z,45.0
Tl1.7Ba2Cu1O6,24.0
Tl1.8Ba2Ca0.85Cu2.2O8,104.0
Y1Ba2Cu3O6.95,92.74
Hg0.67Bi0.33Sr2Y0.67Ca0.33Cu2O6+z,77.5
Bi1.95Sr1.65La0.4Cu1O6+z,13.0
Bi2.1Sr1.9Ca1Cu2O8+z,85.0
Bi2Sr2Ca0.7Yb0.3Cu2O8+z,89.0
Bi2Pb0.25Sr1.75Ca1Cu2O8+z,77.0
C0.47Sr2Ca0.35Y0.65Cu2.48O6.96,40.0
C0.48Sr2Ca0.4Y0.6Cu2.46O6.97,41.1
C0.5Sr2.01Ca0.44Y0.55Cu2.44O6.94,45.5
C0.51Sr2Ca0.5Y0.5Cu2.42O6.92,48.9
C0.53Sr1.99Ca0.56Y0.45Cu2.39O6.94,54.2
C0.54Sr2Ca0.6Y0.4Cu2.38O6.89,56.7
C0.55Sr2.03Ca0.62Y0.35Cu2.35O6.79,60.0
C0.57Sr2Ca0.7Y0.3Cu2.33O6.78,60.3
Hg1Ba2Ca1Cu2O6.24,126.0
Hg1Ba2Ca1Cu2O6.08,92.0
Bi0.5Hg0.5Sr4Cu2C1O10-z,17.0
Bi1.6Pb0.3Te0.1Sr2Ca3Cu4Oz,102.7
Bi2.1Sr1.9Cu1Oz,7.0
Bi2.05Pb0.05Sr1.9Cu1Oz,10.5
Pb0.9Cd0.1Sr2Y0.5Ca0.5Cu2Oz,18.0
Pb0.8Cd0.2Sr2Y0.5Ca0.5Cu2Oz,22.5
Pb0.7Cd0.3Sr2Y0.5Ca0.5Cu2Oz,26.5
Pb0.6Cd0.4Sr2Y0.5Ca0.5Cu2Oz,22.5
Pb0.5Cd0.5Sr2Y0.5Ca0.5Cu2Oz,22.5
Pb0.4Cd0.6Sr2Y0.5Ca0.5Cu2Oz,22.5
Y1Ba2Cu2.7In0.3O6.9,90.0
Dy1Ba1Sr1Cu3O6.9,77.05
Dy1Ba1Sr1Cu3O6.7,29.9
Dy1Ba1Sr1Cu3O6.6,14.85
Dy1Ba1.5Sr0.5Cu3O6.9,86.3
Y1Ba2Cu2.9Fe0.1O7,80.5
Y1Ba2Cu2.9Fe0.1O6.8,48.0
Y1Ba2Cu2.9Fe0.1O6.72,33.0
Y1Ba2Cu2.9Fe0.1O6.62,4.2
Y1Ba2Cu2.9Ni0.1O7,81.5
Y1Ba2Cu2.9Ni0.1O6.88,69.5
Y1Ba2Cu2.9Ni0.1O6.85,54.5
Y1Ba2Cu2.9Ni0.1O6.77,44.0
Y1Ba2Cu2.9Ni0.1O6.71,29.0
Y1Ba2Cu2.9Ni0.1O6.61,20.5
Y1Ba2Cu2.9Ni0.1O6.56,4.3
Y1Ba2Cu2.9Zn0.1O7,51.5
Y1Ba2Cu2.9Zn0.1O6.99,43.5
Y1Ba2Cu2.9Zn0.1O6.93,23.0
Y1Ba2Cu2.9Zn0.1O6.88,4.3
Bi2.1Sr1.85Cu1O6-z,3.46
Bi2.1Sr1.85Cu1O6-z,7.05
Bi2.1Sr1.85Cu1O6-z,5.33
Bi2.1Sr1.85Cu1O6-z,5.74
Bi2.1Sr1.85Cu1O6-z,6.05
Bi2.1Sr1.85Cu1O6-z,5.46
Bi2Sr8Cu4C3O21,34.0
Bi2Sr8Cu4C3O21,30.0
Bi2Sr8Cu4C3O21,40.0
Nd1Ba2Cu3O6.81,91.7
Nd1.2Ba1.8Cu3O6.91,47.6
Y1Ba2Cu2.85Ni0.075Zn0.075O7-z,58.0
Y1Ba2Cu2.85Ni0.101Zn0.049O7-z,62.0
Y1Ba2Cu2.85Ni0.124Zn0.025O7-z,64.6
Y1Ba2Cu285Ni0.15O7-z,73.4
Y1Ba2Cu3O7-z,87.7
BaKBi1O3,30.9
BaKBi1O3,28.0
BaKBi1O3,32.0
Pr1.87Ce0.13Cu1O4-z,17.0
Pr1.86Ce0.14Cu1O4-z,25.0
Pr1.85Ce0.15Cu1O4-z,22.5
Pr1.83Ce0.17Cu1O4-z,12.0
Bi2Sr2Ca0.95Ce0.05Cu2O8,80.0
Bi2Sr2Ca0.9Ce0.1Cu2O8,75.455
Bi2Sr2Ca0.8Ce0.2Cu2O8,17.0
Bi2Sr2Ca1Cu2O8,89.3
Bi2Sr2Ca0.95Pr0.05Cu2O8,83.15
Bi2Sr2Ca0.9Pr0.1Cu2O8,60.5
Bi2Sr2Ca0.85Pr0.15Cu2O8,68.35
Bi2Sr2Ca0.8Pr0.2Cu2O8,58.45
Bi2Sr2Ca0.7Pr0.3Cu2O8,30.3
Bi2Sr2Ca0.6Pr0.4Cu2O8,43.4
Bi2.2Sr1.8Ca1Cu2O8+z,83.5
Bi0.5Sr2Nd1Ce1.6Cu2.5Oz,15.0
Bi0.5Sr2Gd1Ce1.6Cu2.5Oz,20.0
Y1Ba2Cu3.98Ni0.02O8,67.1
Y1Ba2Cu3.96Ni0.04O8,53.0
Y1Ba2Cu3.92Ni0.08O8,25.1
Y1Ba2Cu3.98Zn0.02O8,63.8
Y1Ba2Cu3.96Zn0.06O8,50.1
Y1Ba2Cu3.92Zn0.08O8,40.5
Y1Ba2Cu3.987Fe0.013O8,70.0
Y1Ba2Cu3.84Fe0.16O8,38.6
Y1Ba2Cu2.98Fe0.02O7,90.7
Y1Ba2Cu2.93Fe0.03O7,90.1
Y1Ba2Cu2.94Cu0.6O7,89.1
Y1Ba2Cu2.92Fe0.08O7,86.2
Y1Ba2Cu2.88Fe0.12O7,79.0
Y1Ba2Cu2.74Fe0.26O7,55.6
Y1Ba2Cu2.7Fe0.3O7,50.8
Y1Ba2Cu2.985Zn0.015O7,83.2
Y1Ba2Cu2.97Zn0.03O7,75.2
Y1Ba2Cu2.94Zn0.06O7,57.4
Y1Ba2Cu2.88Zn0.12O7,50.4
Y1Ba2Cu2.94Ni0.06O7,85.9
Y1Ba2Cu2.88Ni0.18O7,77.2
Y1Ba2Cu2.76Ni0.24O7,71.5
Bi2Sr2Ca1Cu1.99Fe0.01O8,74.1
Bi2Sr2Ca1Cu1.98Fe0.02O8,71.5
Bi2Sr2Ca1Cu1.96Fe0.04O8,65.7
Hg1Ba2Ca2Cu3Oz,135.0
Y0.85Ca0.15Sr1.5Ba0.5Cu2.5B0.5O7,35.5
Y0.85Ca0.15Sr1Ba1Cu2.5B0.5O7,43.6
Y0.85Ca0.15Sr0.5Ba1.5Cu2.5B0.5O7,55.6
Y1Sr1Ba1Cu2.5B0.5O7,25.0
Y1Sr0.5Ba1.5Cu2.5B0.5O7,15.0
Hg1Ba2Ca1Cu2O6+z,113.0
Hg1Ba2Ca3Cu4O10+z,126.0
Hg1Ba2Ca2Cu3O8+z,133.0
Hg1Ba2Ca1Cu2Oz,125.0
Hg1Ba2Ca2Cu3Oz,133.0
Y1Ba2Cu3O6.97,89.9
Y1Ba2Cu3O6.9,89.0
Y1Ba2Cu3O7-z,92.9
Y1Ba2Cu2.85Zn0.15O7-z,41.5
Y1Ba2Cu2.955Co0.045O7-z,94.4
Y1Ba2Cu2.88Co0.12O7-z,80.0
Nd1.5Ce0.5Sr2Cu2Nb1O10,24.2
Eu1.5Ce0.5Sr2Cu2Nb1O10,24.0
Sm1.5Ce0.5Sr2Cu2Nb1O10,27.0
Tl0.5Pb0.5Sr2Ca2Cu3O9,115.0
Tl2Ba2Ca2Cu3O10,118.0
La2Cu1O4.08,32.0
La2Cu1O4.12,43.0
La2Cu1O4+z,28.0
La2Cu1O4+z,39.0
Nd1Ba2Cu3O7-z,87.0
Nd1Ba2Cu3O7-z,87.5
Bi2Sr2Ca1Cu2O8+z,85.0
Bi2Sr2Ca1Cu2O8+z,59.0
Tl1Ba1.75Eu1.75Ce0.5Cu2O9-z,40.0
Tl1Ba1.75Eu1.75Ce0.5Cu2O9-z,25.5
Pb0.9AgSr2La2Cu3.1Oz,70.0
Yb1Ba1.8Sr0.2Cu4O8,82.0
Nd1.85Ce0.15Cu1O4,21.5
Nd1.85Ce0.15Cu1O4,21.0
Ho1Ba2Cu3Oz,91.5
Sr2Ho1Cu3O,62.0
Er1Sr2Cu3Oz,60.0
Tm1Sr2Cu3Oz,45.0
Bi2Sr2Ca1Cu2Oz,75.0
I1Bi2Sr2Ca0.5Y0.5Cu2Oz,79.0
I1Bi2Sr2Ca0.6Y0.4Cu2Oz,86.0
I1Bi2Sr2Ca0.8Y0.2Cu2Oz,84.0
I1Bi2Sr2Ca1Cu2Oz,65.0
Bi2Sr2Ca0.8Y0.2Cu2Oz,87.0
Bi2Sr2Ca0.6Y0.4Cu2Oz,86.0
Bi2Sr2Ca0.5Y0.5Cu2Oz,80.0
Tl2Ba2Ca1Cu2O8+z,85.0
Tl2Ba2Ca1Cu2O8+z,105.0
Tl2Ba2Ca0.9Y0.1Cu2O8+z,88.0
Tl2Ba2Ca0.8Y0.2Cu2O8+z,74.0
Tl2Ba2Ca0.75Y0.25Cu2O8+z,58.0
Tl2Ba2Ca0.65Y0.35Cu2O8+z,30.0
Ba1.7K0.3Pb0.95Bi0.05O4,11.0
Ba1.9K0.1Pb0.85Bi0.15O4,12.5
Ba1.7K0.3Pb0.9Bi0.1O4,11.0
Nd1.85Ce0.15Cu1O4+z,24.0
Tl2Ba2Cu1O6,86.0
Pb2Sr2Y0.67Ca0.33Cu3O8+z,80.0
Hg1Ba2Ca2Cu3O8.41,133.0
Hg1Ba2Ca1Cu2O6.22,127.0
Y0.9Ca0.1Ba2Cu4O8,83.5
Sr1.5Bi0.5Y1.15Ce0.85Cu2O8-z,32.0
Er1Ba2Cu3O6.935,88.0
Er0.95Ca0.05Ba2Cu3O6.935,86.0
Er0.9Ca0.1Ba2Cu3O6.93,82.5
Er0.85Ca0.15Ba2Cu3O6.93,79.5
Er0.8Ca0.2Ba2Cu3O6.91,76.5
Er0.75Ca0.25Ba2Cu3O6.88,67.5
Er0.7Ca0.3Ba2Cu3O6.83,55.7
Y0.9Ce0.1Ba2Cu4O8,55.0
Y1Ba2.2Cu4O8,80.0
Y1Sr2Cu2.8Mo0.1W0.1Oz,40.5
Tl1Sr2Ca2Cu3Oz,107.0
Tl1Ba2Ca2Cu3Oz,118.0
Tl0.6V0.5Sr2Ca2Cu3Oz,110.0
I0.52Bi2Sr4Cu2C1Oz,23.0
Nd1Ba2Cu3O7,92.2
Nd0.97Pr0.03Ba2Cu3O7,85.1
Nd0.92Pr0.08Ba2Cu3O7,68.2
Nd0.85Pr0.15Ba2Cu3O7,40.7
Nd0.8Pr0.2Ba2Cu3O7,31.4
Nd0.7Pr0.3Ba2Cu3O7,5.6
Gd1Ba2Cu3O7,96.2
Gd0.97Pr0.03Ba2Cu3O7,93.1
Gd0.922Pr0.078Ba2Cu3O7,84.0
Gd0.85Pr0.15Ba2Cu3O7,67.9
Gd0.8Pr0.2Ba2Cu3O7,57.7
Gd0.7Pr0.3Ba2Cu3O7,39.6
Gd0.6Pr0.4Ba2Cu3O7,20.9
Er1Ba2Cu3O7,93.6
Er0.97Pr0.03Ba2Cu3O7,93.9
Er0.924Pr0.076Ba2Cu3O7,91.1
Er0.85Pr0.15Ba2Cu3O7,82.9
Er0.8Pr0.2Ba2Cu3O7,76.4
Er0.7Pr0.3Ba2Cu3O7,61.1
Er0.6Pr0.4Ba2Cu3O7,45.8
Er0.5Pr0.5Ba2Cu3O7,28.6
Lu1Ba2Cu3O7,90.8
Lu0.85Pr0.15Ba2Cu3O7,89.7
Lu0.8Pr0.2Ba2Cu3O7,86.8
Lu0.7Pr0.3Ba2Cu3O7,73.5
Lu0.6Pr0.4Ba2Cu3O7,59.1
Hg0.4Ce0.6Sr2.5Ca0.4Cu2.1O7-z,51.0
Hg0.4Ce0.6Sr2.5Ca0.2Nd0.2Cu2.1O7-z,65.0
Hg0.4Ce0.6Sr2.5Ca-0.1Nd0.5Cu2.1O7-z,60.0
Ca1La1Ba1Cu3Oz,79.1
Ca0.9Cd0.1La1Ba1Cu3Oz,76.7
Ca0.8Cd0.2La1Ba1Cu3Oz,76.0
Ca0.7Cd0.3La1Ba1Cu3Oz,70.8
Ca0.6Cd0.4La1Ba1Cu3Oz,67.3
Ca0.5Cd0.5La1Ba1Cu3Oz,58.4
Ca0.4Cd0.6La1Ba1Cu3Oz,47.8
Ca0.3Cd0.7La1Ba1Cu3Oz,36.0
Ca0.25Cd0.75La1Ba1Cu3Oz,31.3
Hg1Ba2Cu1O4+z,96.0
Hg1Ba2Ca1Cu2O6+z,127.0
Hg0.7Mo0.3Sr2Cu1Oz,56.0
Hg0.8Re0.2Sr2Ca0.7Y0.3Cu2Oz,91.5
Hg1Sr2Ca0.7Y0.3Cu1.8Re0.2Oz,91.5
Hg1Sr2Cu0.9Re0.1Oz,62.0
Hg0.7Mo0.3Sr2Ca0.7Y0.3Cu2Oz,96.0
Hg0.7Mo0.3Sr2Ca0.5Y0.5Cu2Oz,89.3
Hg0.7Mo0.3Sr2Ca0.3Y0.7Cu2Oz,84.0
Y1Ba2Cu2.88Zr0.12O7-z,84.0
Y1Ba2Cu2.85Zr0.15O7-z,82.5
Hg1Sr2Cu1O4+z,56.0
Hg0.95Mo0.05Sr2Cu1O4+z,58.0
Hg0.9Mo0.1Sr2Cu1O4+z,72.0
Hg0.85Mo0.15Sr2Cu1O4+z,78.0
Hg0.8Mo0.2Sr2Cu1O4+z,72.0
Hg0.75Mo0.25Sr2Cu1O4+z,50.0
Hg0.7Mo0.3Sr2Cu1O4+z,20.0
Hg0.65Mo0.35Sr2Cu1O4+z,9.0
C1Ba2.5Ca2.5Cu4Oz,113.0
La1.85Sr0.15Cu1O4,35.45
La1.935Ca0.065Cu1O4,5.55
Nd1.85Ce0.15Cu1O4,20.35
Pr1.85Ce0.15Cu1O4,19.5
Ba1.96Ca0.12Y0.92C0.21Cu2.79Oz,85.0
Ga1Sr2Ca3Cu4O10.8,93.0
Ga1Sr2Ca3Cu4O10.9,100.0
Ga1Sr2Ca3Cu4O11.,107.0
Ga1Sr2Ca3Cu4O11.1,107.0
Ga1Sr2Ca3Cu4O11.5,63.0
Ga1Sr2Ca3Cu4OZ,70.0
Pb2Sr2Ho0.5Ca0.5Cu3O8,78.5
Y1Ba2Cu3O6.887,89.8
Y1Ba2Cu3O6.791,86.9
Y1Ba2Cu3O6.821,91.1
Y1Ba2Cu3O6.869,90.0
Y1Ba2Cu3O6.87,88.7
Y1Ba2Cu3O6.852,89.2
Y1Ba2Cu3O6.858,87.4
Y1Ba2Cu3O6.937,84.8
Y1Ba2Cu3O6.838,84.8
Y1Ba2Cu3O6.861,80.5
Y1Ba2Cu3O6.894,80.5
Y1Ba2Cu3O6.876,78.1
Y1Ba2Cu3O6.883,74.0
Y1Ba2Cu3O6.87,75.1
Y1Ba2Cu3O6.829,57.7
Y1Ba2Cu3O6.729,56.8
Y1Ba2Cu3H0.2O6.98,94.5
Y1Ba2Cu3H1.4O6.98,92.0
Y0.95K0.05Ba2Cu3O6.6,89.4
Y0.9K0.1Ba2Cu3O6.51,92.05
Y0.85K0.15Ba2Cu3O6.48,90.15
Y0.95Rb0.05Ba2Cu3O6.59,92.05
Y0.9Rb0.1Ba2Cu3O6.42,92.4
Y0.85Rb0.15Ba2Cu3O6.48,91.95
Y0.95Cs0.05Ba2Cu3O6.61,92.45
Y0.9Cs0.1Ba2Cu3O6.47,91.3
Y0.85Cs0.15Ba2Cu3O6.5,90.4
Y1Ba1.9K0.1Cu3O6.61,92.7
Y1Ba1.8K0.2Cu3O6.57,93.0
Y1Ba1.7K0.3Cu3O6.54,92.85
Y1Ba1.9Rb0.1Cu3O6.52,93.35
Y1Ba1.8Rb0.2Cu3O6.56,90.55
Y1Ba1.7Rb0.3Cu3O6.52,91.05
Y1Ba1.9Cs0.1Cu3O6.65,93.45
Y1Ba1.8Cs0.2Cu3O6.58,93.3
Y1Ba1.7Cs0.3Cu3O6.6,93.75
Y0.95Sc0.05Ba2Cu3O6.63,91.7
Y0.9Sc0.1Ba2Cu3O6.56,91.4
Y0.95La0.05Ba2Cu3O6.58,93.65
Y0.9La0.1Ba2Cu3O6.62,92.35
Y1Ba1.9Sc0.1Cu3O6.55,88.95
Y1Ba1.8Sc0.2Cu3O6.64,88.8
Y1.1Ba1.9Cu3O6.65,91.25
Y1.2Ba1.8Cu3O6.68,92.3
Y1Ba1.9La0.1Cu3O6.73,92.85
Y1Ba1.8La0.2Cu3O6.81,91.7
Ag0.25Cu0.75Ba2Ca3Cu4O11-z,117.1
Nd1Ba2Cu3O7,94.5
C60K3,17.8
C60Rb3,29.5
Hg1.46Cl1.46Bi2Sr2Ca1Cu2Oz,86.0
Bi1.6Pb0.4Sr2Ca2Cu3Oz,93.0
Bi1.6Pb0.4Sr2Ca2Cu3F0.65Oz,100.0
Bi1.6Pb0.4Sr2Ca2Cu3F0.85Oz,102.0
Bi1.6Pb0.4Sr2Ca2Cu3F0.85Oz,116.0
Li0.5Nb1O2,5.0
Li0.45Nb1O2,5.5
Hg1Ba2CaSrCu3O8+z,132.0
Hg0.5Tl0.5Ba2CaSrCu3O8+z,132.0
Bi2Sr2Ca1Cu2O8+z,66.5
Bi2Sr1.9Gd0.1Ca1Cu2O8+z,76.0
Bi2Sr1.8Gd0.2Ca1Cu2O8+z,71.6
Bi2Sr1.7Gd0.3Ca1Cu2O8+z,60.4
Bi2Sr1.6Gd0.4Ca1Cu2O8+z,50.0
Bi2Sr1.5Gd0.5Ca1Cu2O8+z,21.6
Bi2Sr1.44Gd0.56Ca1Cu2O8+z,4.0
Y1Ba2Cu3.96Ni0.04O8,45.4
Y1Ba2Cu3.92Ni0.08O8,17.0
Y1Ba2Cu3O6.92,92.4
Bi2Sr1.6La0.4Cu1O6.307,27.6
Bi2Sr1.6Pr0.4Cu1O6.313,21.8
Bi2Sr1.6Nd0.4Cu1O6.32,23.1
Bi2Sr1.6Sm0.4Cu1O6.3,17.0
Bi2Sr1.6Eu0.4Cu1O6.301,12.5
Bi2Sr1.3La0.7Cu1O6.422,22.6
Bi2Sr1.3Nd0.7Cu1O6.417,14.2
Bi2Sr1.3Sm0.7Cu1O6.405,8.0
Al1Sr2Ca3Cu4Oz,110.0
Al1Sr2Ca5Cu5Oz,83.0
Sr2Cu1F2.33O2,46.0
Pb2Sr2Ho0.05Ca0.5Cu2.994Al0.006O8,76.4
Pb2Sr2Ho0.5Ca0.5Cu2.982Al0.018O8,63.6
Pb2Sr2Ho0.5Ca0.5Cu2.97Al0.03O8,59.1
Pb2Sr2Ho0.5Ca0.5Cu2.94Al0.06O8,51.8
Pb2Sr2Ho0.5Ca0.5Cu2.94Pt0.06O8,80.4
Ca1.883Cu0.941Cl1.941Na0.059O2.117,26.0
Ca1.808Cu0.904Cl1.904Na0.096O2.192,26.0
Ca1.737Cu0.868Cl1.868Na0.132O2.263,21.0
Ca1.702Cu0.851Cl1.851Na0.149O2.404,15.0
Hg1Ba2Ca2Cu3O8+z,132.0
Hg1Ba2Ca2Cu3O8+z,124.0
Hg0.75Tl0.25Ba2Ca1.72Sr0.28Cu3O8+z,128.0
Hg0.5Tl0.5Ba2Ca1.72Sr0.28Cu3O8+z,124.0
Hg0.25Tl0.75Ba2Ca1.72Sr0.28Cu3O8+z,122.0
Tl2HgBa2Ca2Cu3O10-Z,118.5
Tl1.7Hg0.3Ba2Ca2Cu3O10-z,124.0
Tl1.6Hg0.4Ba2Ca2Cu3O10-z,127.0
Tl1.4Hg0.6Ba2Ca2Cu3O10-z,123.5
Y1Ba2Cu3F0.15O6.7,89.5
Y1Ba2Cu3F0.25O6.7,91.0
Y1Ba2Cu3F0.29O6.7,91.0
Y1Ba2Cu3F0.38O6.7,91.0
Bi2Sr1.9Cu2.1Ox,7.5
Er1Ba2Cu3O7-y,90.5
Er1Ba2Cu2.85Ni0.15O7-y,89.5
Er1Ba2Cu2.85Zn0.15O7-y,86.0
Er1Ba2Cu2.85Fe0.15O7-y,90.0
Er1Ba2Cu2.85Co0.15O7-y,88.5
Er1Ba2Cu2.85Ga0.15O7-y,89.6
Hg1Ba2Cu1O4+z,59.0
Hg1Ba2Cu1O4+z,87.0
Hg1Ba2Cu1O4.1,35.0
Hg1Ba2Cu1O4.09,36.0
Hg1Ba2Cu1O4.07,91.0
Hg1Ba2Cu1O4.117,82.0
Hg1Ba2Cu1O4.09,96.0
Hg1Ba2Cu1O4.043,87.0
Er1Ba2Cu3O6.92,90.0
Y1CaBa2Cu3NiO6.89,91.0
Y0.95Ca0.05Ba2Cu2.95Ni0.05O6.83,82.0
Y0.9Ca0.1Ba2Cu2.9Ni0.1O6.86,74.0
Y0.85Ca0.15Ba2Cu2.85Ni0.15O6.85,67.0
Y0.8Ca0.2Ba2Cu2.8Ni0.2O6.77,64.0
Y0.75Ca0.25Ba2Cu2.75Ni0.25O6.77,62.0
Y0.7Ca0.3Ba2Cu2.7Ni0.3O7-z,65.0
Hg0.8V0.2Ba2Cu1O4.3,90.0
Hg0.8V0.2Ba2Ca1Cu2O6.3,115.0
Hg0.8V0.2Ba2Ca1Cu2O6.3,125.0
Y0.95Ca0.05Ba2Cu2.95Zn0.05O6.89,65.0
Y0.9Ca0.1Ba2Cu2.9Zn0.1O6.81,50.0
Y0.85Ca0.15Ba2Cu2.85Zn0.15O6.85,43.0
Y0.8Ca0.2Ba2Cu2.8Zn0.2O6.73,43.0
Y0.75Ca0.25Ba2Cu2.75Zn0.25O6.76,42.0
Y0.7Ca0.3Ba1Cu2.7Zn0.3O7-z,45.0
Hg0.5Mo0.5Sr4Cu2C1O9+z,74.0
Hg0.4Cr0.6Sr4Cu2C1O9+z,37.0
Y0.6Ca0.4Sr1.8Ba0.2Cu2Ga1O7,45.0
Y0.6Ca0.4Sr1.7Ba0.3Cu2Ga1O7,50.0
Y0.6Ca0.4Sr1.6Ba0.4Cu2Ga1O7,56.0
Y0.6Ca0.4Sr1.8Ba0.2Cu2Ga1O7,68.0
Y0.65Ca0.35Sr2Cu2Ga1O7,27.0
Y0.6Ca0.4Sr2Cu2Ga1O7,41.0
Ba6C60,7.0
Y0.8Ca0.2Sr1.5Ba0.5Cu2.8Cr0.2O7,28.0
Y0.7Ca0.3Sr1.5Ba0.5Cu2.8Cr0.2O7,41.0
Y1Ba2Cu2.8Cr0.2O7,87.5
Y1Ba2Cu2.79Co0.21O7,22.0
Y0.8Ca0.2Sr1Ba1Cu2.7Ga0.3O7,64.0
Y0.8Ca0.2Sr1.6Ba0.4Cu2.7Ga0.3O7,53.9
Hg0.9W0.1Ba2Cu1O4.2,89.0
Hg0.6Cr0.4Ba2Cu1O4.1,70.0
Hg0.8Mo0.2Ba2Cu1O4.4,74.0
Hg0.9Mo0.1Ba2Cu1O4.2,75.0
Hg0.8W0.2Ba2Cu1O4.4,45.0
Hg0.9Ba2Cu1O4+z,91.0
Hg0.8V0.2Ba2Cu1O4.3,96.0
Hg1Ba2Ca1Cu2O6+z,117.0
Hg0.8V0.2Ba2Ca1Cu2O6.3,119.0
Hg0.8V0.2Ba2Ca1Cu2O6.3,128.0
Hg0.8Mo0.2Ba2Ca1Cu2O6.4,127.0
Hg0.8W0.2Ba2Ca1Cu2O6.4,118.0
Hg0.9W0.1Ba2Ca1Cu2O6.2,118.0
Hg0.8Ti0.2Ba2Ca1Cu2O6.2,127.0
Hg0.8Cr0.2Ba2Ca1Cu2O6.1,110.0
Hg0.8Cr0.2Ba2Ca1Cu2O6.1,115.0
Hg1Ba2Ca1Cu2O6+z,105.0
Hg1Ba2Ca1Cu2O6+z,134.0
Hg0.8V0.2Ba2Ca2Cu3O8.3,120.0
Hg0.8V0.2Ba2Ca2Cu3O8.3,127.0
Hg0.8Mo0.2Ba2Ca2Cu3O8.4,129.0
Hg0.8Mo0.2Ba2Ca2Cu3O8.4,134.0
Hg0.6Ti0.4Ba2Ca2Cu3O8.4,128.0
Hg0.6Ti0.4Ba2Ca2Cu3O8.4,134.0
Hg0.8Cr0.2Ba2Ca2Cu3O8.1,95.0
Hg0.8Cr0.2Ba2Ca2Cu3O8.1,110.0
Y0.95Ba1.95Ca0.1Cu4O8,80.0
Gd0.95Ba1.95Ca0.1Cu4O8,80.0
Y1Ba2Cu3O7-z,93.5
Hg1Ba2Cu1O4+z,90.0
Hg0.9Ba2Cu1O4,73.0
Hg0.8Bi0.2Ba2Cu1O4.2,85.0
Hg0.8Bi0.2Ba2Ca2Cu3O8.2,130.0
Y1Ba2Cu3O7,92.03
Y1Ba2Cu3O7,92.83
Hg0.95Mo0.05Sr2Ca2Cu3Oz,106.0
Hg0.75Mo0.05Sr2Ca2Cu3O,106.0
Hg0.75SrBa2Ca2Cu3O8+z,133.5
Hg0.75Sr0.5Ba1.5Ca2Cu3O8+z,126.2
Hg0.75Sr1Ba1Ca2Cu3O8+z,122.0
Hg0.5Pb0.5Sr2Ca2Cu3Oz,121.0
Hg0.5Pb0.5Sr2Ca2Cu3Oz,107.0
Sr2Cu1F2O2,47.0
Sr2BaCu1F2O2,46.0
Sr1.9Ba0.1Cu1F2O2,54.0
Sr1.75Ba0.25Cu1F2O2,58.0
Sr1.6Ba0.4Cu1F2O2,60.0
Sr1.5Ba0.5Cu1F2O2,62.0
Sr1.4Ba0.6Cu1F2O2,64.0
B1Sr2Ca3Cu4O11,110.0
Nd1.85Ce0.15Cu1O4-z,23.0
Ba0.625K0.375Bi1O3,30.0
Ba0.6K0.4Bi1O3,27.25
Bi1.82Pb0.18Sr2Ca2Cu3O16+z,102.98
Bi1.72Pb0.28Sr2Ca2Cu3O16+z,102.98
Bi1.62Pb0.38Sr2Ca2Cu3O16+z,104.44
Bi1.52Pb0.48Sr2Ca2Cu3O16+z,107.17
C60Yb2.75,6.0
Y0.3Pr0.7Ba1Sr1Cu3O6.95,14.0
La1.5Ba1.5Sr1.5Cu3Oz,18.0
La1.5Ba1.3Sr0.2Cu3Oz,31.8
La1.5Ba1.2Sr0.3Cu3Oz,38.0
La1.5Ba1.1Sr0.4Cu3Oz,35.0
La1.5Ba1Sr0.5Cu3O6.955,26.9
La1.1Ba1.7Sr0.2Cu3Oz,54.3
La1.1Ba1.6Sr0.3Cu3Oz,63.1
La1.1Ba1.5Sr0.4Cu3Oz,56.1
La1.1Ba1.4Sr0.5Cu3O6.954,50.1
La1Ba1.6Sr0.4Cu3Oz,65.3
La1Ba1.5Sr0.5Cu3O6.948,57.1
La1.2Ba1.8SrCu3Oz,44.0
La1.2Ba1.6Sr0.2Cu3Oz,47.9
La1.2Ba1.5Sr0.3Cu3Oz,55.2
La1.2Ba1.4Sr0.4Cu3Oz,52.0
La1.2Ba1.3Sr0.5Cu3O6.943,45.1
La1.3Ba1.7SrCu3O6.885,32.0
La1.3Ba1.5Sr0.2Cu3O6.901,43.8
La1.3Ba1.4Sr0.3Cu3O6.91,50.0
La1.3Ba1.3Sr0.4Cu3O6.928,45.2
La1.3Ba1.2Sr0.5Cu3O6.955,38.0
Tl1HgSr2Ba2Cu2Co3Oz,70.3
Tl0.8Hg0.2Sr2Ba2Cu2Co3Oz,70.0
Tl0.7Hg0.3Sr2Ba2Cu2Co3Oz,71.0
Tl0.5Hg0.5Sr2Ba2Cu2Co3Oz,72.9
Tl0.3Hg0.7Sr2Ba2Cu2Co3Oz,73.0
Tl0.2Hg0.8Sr2Ba2Cu2Co3Oz,60.0
Tl0.1Hg0.9Sr2Ba2Cu2Co3Oz,66.0
TlHg1Sr2Ba2Cu2Co3Oz,57.3
Tl1HgSr2Ba2Cu2Co3Oz,73.0
TlHg1Sr2Ba2Cu2Co3Oz,66.0
Ga0.3Hg0.7Sr2Y0.3Ca0.7Cu2OZ,86.0
Ga0.5Hg0.5Sr2Y0.3Ca0.7Cu2OZ,54.0
Ga0.7Hg0.3Sr2Y0.3Ca0.7Cu2OZ,56.5
Ga0.3Hg0.7Sr2Y0.5Ca0.5Cu2OZ,88.0
Ga0.5Hg0.5Sr2Y0.5Ca0.5Cu2OZ,86.0
Ga0.7Hg0.3Sr2Y0.5Ca0.5Cu2OZ,55.0
Hg1Tl1Ba4Ca2Cu4OZ,108.0
Hg1Tl1Ba4Ca4Cu6OZ,122.5
Hg1Tl2Ba4Ca2Cu4OZ,117.5
Hg1Tl2Ba4Ca4Cu6OZ,122.0
Hg1Tl2Ba4Ca4Cu6OZ,107.5
Hg1Tl1Sr4Ca2Cu4OZ,102.5
Hg1Tl2Sr4Ca2Cu4OZ,91.5
Hg1Tl2Sr4Cu6OZ,90.0
Y0.8Gd0.2Ba2Cu3O7-z,92.0
Y0.6Gd0.4Ba2Cu3O7-z,92.0
Y0.4Gd0.6Ba2Cu3O7-z,92.0
Y0.2Gd0.8Ba2Cu3O7-z,92.0
Gd1Ba2Cu3O7-z,92.0
Cd1Ba2Ca0.7Y0.3Cu2Oz,103.0
Gd1Ba1Sr1Cu3O7,82.0
Gd1Ba1Sr1Cu3O7-z,85.0
Hg0.7Pb0.3Sr2Ca0.7Y0.3Cu2Oz,100.0
Hg0.5Pb0.5Sr2Ca0.5Y0.5Cu2Oz,90.0
Hg0.5Pb0.5Sr2Ca0.7Y0.3Cu2Oz,90.0
Hg0.8Mo0.2Sr2Y0.6Ca0.4Ca2O6+z,74.5
Hg0.8Mo0.2Sr2Y0.5Ca0.5Ca2O6+z,73.5
Hg0.8Mo0.2Sr2Y0.35Ca0.65Ca2O6+z,85.5
Bi0.3Pb0.5Cu0.2Sr2Dy0.75Ca0.25Cu2Oz,80.0
Bi0.3Pb0.5Cu0.2Sr2Dy0.5Ca0.5Oz,80.0
Bi2Sr2Ca1Cu2O8,86.1
I1Bi2Sr2Ca1Cu2O8,58.3
Bi2Sr2Ca1Cu2O8,72.2
I1Bi2Sr2Ca1Cu2O8,72.2
Pb0.5Cd0.5Sr2Y0.5Ca0.5Cu2O7,63.5
Pb0.5Cd0.5Sr2Y0.5Ca0.5Cu2O7,22.0
Pb0.5Cd0.5Sr2Y0.5Ca0.5Cu2O7,70.5
Tl1Ba2Sr2Cu2C1O10,61.0
Tl0.67Cr0.33Sr4Cu2C1O10,77.0
Tl0.8V0.2Sr4Cu2C1O10,50.0
Tl0.5Pb0.5Sr4Cu2C1O10,71.0
Hg0.6V0.4Sr4Cu2C1O9+z,76.0
La1.65Sm0.15Sr0.2Cu1O4,24.0
La1.5Sm0.3Sr0.2Cu1O4,17.0
La1.35Sm0.45Sr0.2Cu1O4,12.0
La1Sm0.8Sr0.2Cu1O4,35.0
Y1Ba2Cu3.98Fe0.02O8,70.5
Y1Ba2Cu3.96Fe0.04O8,64.75
Y1Ba2Cu3.92Fe0.08O8,60.5