composition,critical_temperature_tc
Ba0.2La1.8Cu1O4-Y,29.0
Ba0.1La1.9Ag0.1Cu0.9O4-Y,26.0
Ba0.1La1.9Cu1O4-Y,19.0
Ba0.15La1.85Cu1O4-Y,22.0
Ba0.3La1.7Cu1O4-Y,23.0
Ba0.5La1.5Cu1O4-Y,23.0
Ba1La1Cu1O4-Y,11.0
Sr0.1La1.9Cu1O4-Y,33.0
Sr0.15La1.85Cu1O4-Y,36.0
Sr0.2La1.8Cu1O4-Y,31.0
Sr0.3La1.7Cu1O4-Y,33.0
Ba0.3La1.7Hg0.3Cu0.7O4-Y,26.0
Ba0.1La1.9Ag0.05Cu0.95O4-Y,27.0
Ba0.1La1.9Ag0.1Cu0.9O4-Y,27.0
Ba0.1La1.9Ag0.25Cu0.75O4-Y,26.0
Ba0.1La1.9Ag0.5Cu0.5O4-Y,27.0
Y1Ba1.5Ca0.5Cu3O7-Z,82.0
Ba0.15La1.85Cu1O4-Y,30.0
La1.85Ba0.15Cu1O4,30.0
La1.85Sr0.15Cu1O4,39.0
La1.95Sr0.05Cu1O4-Y,14.8
La1.9Sr0.1Cu1O4-Y,30.0
La1.775Sr0.225Cu1O4-Y,35.5
La1.75Sr0.25Cu1O4-Y,23.3
La1.7Sr0.3Cu1O4-Y,18.2
La1.65Sr0.35Cu1O4-Y,18.3
La1.6Sr0.4Cu1O4-Y,18.3
La1.825Sr0.175Cu1O4-Y,37.5
La1.85Ca0.15Cu1O4-Y,20.0
Yb16Ba1Cu2Oz,76.9
Yb1.8Ba0.2Cu1Oz,65.3
Yb6Ba1Cu1Oz,78.6
Yb1.62La0.18Ba0.18Sr0.02Cu1Oz,79.3
Y0.4Ba0.6Cu1OX,90.0
Y0.4Ba0.6Cu1OX,90.5
Er0.5Ba0.5Cu1OX,92.0
Tm0.35Ba0.65Cu1OX,93.2
Tm0.3Ba0.7Cu1OX,94.4
Tm0.25Ba0.75Cu1OX,93.2
Tm0.2Ba0.8Cu1OX,80.5
La2Ba4Cu6O14+X,48.0
Y1Ba2Cu3OX,90.0
Y1.6Ba2.4Cu3O10-X,90.0
Y1.2Ba1.8Cu2O7-X,92.0
Y0.8Ba1.2Cu1O4-X,80.0
Nd0.4Ba0.6Cu1OX,85.0
Eu0.4Ba0.6Cu1O3-X,8.0
Gd0.4Ba0.6Cu1O3-X,13.0
Dy0.4Ba0.6Cu1O3-X,91.0
Ho0.4Ba0.6Cu1O3-X,94.0
Er0.4Ba0.6Cu1O3-X,93.0
Tm0.4Ba0.6Cu1O3-X,93.0
Lu0.4Ba0.6Cu1O3-X,91.0
Nd2Ba3Cu5OX,18.0
Sm1Ba2Cu3OX,43.0
Gd2Ba3Cu5OX,40.0
Y1Ba2Cu3OX,70.0
Y0.3Ba0.7Cu1O3-X,95.5
Y0.8Ba1.2Cu1OX,94.0
Y0.6Ba0.9Cu1OX,88.0
Ba0.3La1.7Hg0.15Cu0.85O4-Y,28.0
La1.85Sr0.15Cu1O4-Y,35.5
Yb1.6La0.2Ba0.2Cu1Oz,79.2
Sr0.35La1.65Cu1O4-Y,26.0
Y0.4Ba0.6Cu1OX,92.0
Yb0.4Ba0.6Cu1O3-X,88.0
Lu1.8Ba0.2Cu1O4,71.9
Y0.9Ba0.1Cu1O4,81.0
Ba0.15La1.85Cu1O4,28.0
Sr0.15La1.85Cu1O4,34.7
Sr0.2La1.8Cu0.95Ti0.05O4,21.0
Sr0.2La1.8Cu0.99V0.01O4,12.0
Sr0.2La1.8Cu0.99Cr0.01O4,22.0
Sr0.2La1.8Cu0.98Mn0.02O4,32.0
Sr0.2La1.8Cu0.95Fe0.05O4,30.0
Sr0.2La1.8Cu0.95Co0.05O4,16.0
Sr0.2La1.8Cu0.95Ni0.05O4,21.0
Sr0.2La1.8Cu0.99Zn0.01O4,29.0
Pr0.1La1.7Sr0.2Cu1O4,36.0
Nd0.1La1.7Sr0.2Cu1O4,35.0
Sm0.1La1.7Sr0.2Cu1O4,32.0
Gd0.1La1.7Sr0.2Cu1O4,30.0
Y1Ba2Cu2.85Fe0.15O7,51.0
Y1Ba2Cu2.7Fe0.3O7,33.0
Y1Ba2Cu2.97Fe0.03O7,82.0
Y1Ba2Cu2.94Fe0.06O7,60.0
Y1Ba2Cu2.88Fe0.12O7,54.0
Y1Ba2Cu3O7,90.0
Y1Ba2Cu3S1O6,90.0
Y1Ba2Cu3Cl1O6,72.0
Y1Ba2Cu3O7+Y,92.0
Y1Ba2Cu3O7,93.0
Y1Ba2Cu3O7-Y,92.0
Gd1Ba2Cu3O7-Y,94.5
La1.85Sr0.15Cu1O4,36.0
Y1Ba2Cu3O7,91.85
Y1Ba2Cu3O7,91.95
Y1Ba2Cu3O7,89.7
Y1Ba2Cu3O7,89.9
Ho1Ba2Cu3O8-X,85.0
Y0.1Gd0.9Ba2Cu3O8-X,90.5
Y1Ba2Cu3O7-X,130.0
Y1Ba2Cu3O7-X,88.8
Y1Ba2Cu3O7-X,90.0
Y1Ba2Cu3O7-X,85.5
Y3Ba5Cu4Nb1O18-X,77.3
Sm0.45Ba0.55Cu1O3-Y,69.0
Sm0.4Ba0.6Cu1O3-Y,84.3
Sm0.33Ba0.67Cu1O7-X,86.4
Sm0.3Ba0.7Cu1O3-Y,88.8
Sm0.25Ba0.75Cu1O3-Y,73.6
Sm0.2Ba0.8Cu1O3-Y,62.5
Sm0.35Ba0.65Cu1O3-Y,93.1
Y1Ba2Cu3O9-X,92.0
Bi2Sr2Cu2O7+Z,22.0
Bi1Sr1Cu1OY,6.5
Er1Ba2Cu3OX,85.5
Ho1Ba2Cu3OX,91.0
Gd1Ba2Cu3OX,93.0
Y1Ba2Cu3O6.9,95.0
Eu1.5Ba1.5Cu3Oz,89.5
Gd1.5Ba1.5Cu3Oz,92.5
Y1.5Ba1.5Cu3Oz,90.0
Yb1.5Ba1.5Cu3Oz,90.0
Y1Ba2Cu3O7,91.6
Y1Ba2Cu2.75Ni0.25O7,63.9
Y1Ba2Cu3O7,92.0
Y1Ba2Cu2.95Al0.05O7,88.0
Y1Ba2Cu2.9Al0.1O7,75.0
La1.85Sr0.15Cu1O4,39.3
La1.85Sr0.15Cu0.975Ni0.025O4,22.6
La1.85Sr0.15Cu0.95Ni0.05O4,4.2
Y1Ba2Cu2.89Al0.11O7,82.0
Y1Ba2Cu2.88Al0.12O7,51.0
Y1Ba2Cu2.87Al0.13O7,45.0
Y1Ba2Cu2.865Al0.135O7,45.0
Y1Ba2Cu2.82Al0.18O7,20.0
Y1Ba2Cu3O7-Z,92.4
Y1Ba2Cu3O6.8,91.6
Er1Ba2Cu3O7-Z,86.0
Y1Ba2Cu3H0.14O7,92.5
Y1Ba2Cu3H0.48O7,93.6
Y1Ba2Cu3H1O7,93.2
Y1Ba2Cu3O9-Z,90.0
Eu1Ba2Cu3O7.1,94.9
Gd1Ba2Cu3O7.08,93.8
Dy1Ba2Cu3O6.82,92.7
Ho1Ba2Cu3O6.71,92.9
Er1Ba2Cu3O6.82,92.4
Tm1Ba2Cu3O6.65,92.5
Yb1Ba2Cu3O6.71,87.0
Lu1Ba2Cu3O7-X,89.5
Y1Ba2Cu3O6.72,93.4
Nd1Ba2Cu3O7.16,95.3
Sm1Ba2Cu3O7.11,93.5
La1.85Sr0.15Cu1O4,37.1
La1.85Sr0.15Cu1O4-Z,33.0
Y1Ba2.01Cu2.81Ni0.19O6.7,65.0
Y1Ba2.02Cu2.18Zn0.82O7,30.0
Y1Ba1.99Cu2.847Ag0.153O6.7,86.0
Y1Ba2Cu2.902Pt0.098O6.4,81.0
Y1Ba2.01Cu2.7Co0.3O6.8,36.0
Y1.01Ba2.01Cu2.906Ni0.094O6.7,71.0
Y1Ba2Cu2.697Mn0.303O6.9,63.0
Y1Ba2Cu2.844Fe0.156O7,57.0
Y1.01Ba2.01Cu2.697Fe0.303O,36.0
Y1Ba2Cu3O6.9,88.0
Y0.99Ba1.99Cu2.847Li0.153O6.4,62.0
Y1.01Ba2.03Cu2.808Li0.192O6.6,33.0
Y1Ba2Cu2.85Fe0.15O7-Z,50.0
Y1Ba2Cu2.85Fe0.15O7-Z,57.0
Y1Ba2Cu2.7Fe0.3O7-Z,4.0
Y1Ba2Cu3O7-Z,91.0
Y1Ba2Cu2.955Fe0.045O7-Z,74.0
Y1Ba2Cu2.955Fe0.045O7-Z,59.0
Y1Ba2Cu2.895Fe0.105O7-Z,61.0
Y1Ba2Cu3F0.825O,90.5
Y1Ba2Cu3F1.65O5.675,90.3
Y1Ba2Cu3F0.066Oz,93.4
Y1Ba2Cu3F0.066Oz,92.2
Y1Ba2Cu3F0.165Oz,91.6
Y1Ba2Cu3F0.016Oz,90.8
Y1Ba2Cu3F0.033Oz,92.1
Y1Ba2Cu3F0.05Oz,92.5
Y1Ba2Cu3Oz,90.0
Y1Ba2Cu3Oz,86.0
Gd1Ba2Cu3Oz,87.0
Er1Ba2Cu3OX,90.0
Dy1Ba2Cu3OX,92.0
Ho1Ba2Cu3OX,90.0
Y1Ba2Cu3OX,92.0
La1.85Sr0.15Cu1O4-X,34.0
La1.85Sr0.15Cu0.995Ni0.005O4-X,30.5
La1.85Sr0.15Cu0.99Ni0.01O4-X,30.5
La1.85Sr0.15Cu0.98Ni0.02O4-X,23.0
La1.85Sr0.15Cu0.97Ni0.03OX,24.0
Tl2Ca2Ba1Cu3OX,110.0
Tl2Ca2Ba2Cu3OX,110.0
Y1Ba2Cu3Oz,93.5
Y1Ba2Cu2.85Ti0.15Oz,94.0
Y1Ba2Cu2.7Ti0.3Oz,92.5
Y1Ba2Cu2.55Ti0.45Oz,92.5
Y1Ba2Cu2.4Ti0.6Oz,93.5
Y1Ba2Cu2.25Ti0.75Oz,88.0
Y1Ba2Cu2.1Ti0.9Oz,83.5
Bi1Sr1Ca1Cu2Oz,110.0
Bi2Sr1.8Ca1.2Cu2Oz,75.0
Bi2Sr3Ca4Cu8Oz,104.0
Bi1Sr1Ca1Cu2Oz,106.0
La1.85Sr0.15Cu0.925Zn0.025O4,15.0
Y1Ba2Cu3O7-Z,91.5
Y1Ba2Cu2.841Co0.159O6.8,54.0
Y1Ba2.01Cu2.806Cr0.194O7.3,62.0
Y1Ba2Cu3O6.74,91.0
Y1Ba2Cu2.98Fe0.02O6.93,91.8
Y1Ba2Cu2.95Fe0.05O6.92,91.8
Y1Ba2Cu2.9Fe0.1O6.92,76.0
Y1Ba2Cu2.8Fe0.2O6.93,49.0
Y1Ba2Cu2.6Fe0.4O7,31.0
Y1Ba2Cu2.95Al0.05O6.93,91.0
Y1Ba2Cu2.9Al0.1O6.93,92.0
Y1Ba2Cu2.8Al0.2O6.91,85.0
Y1Ba2Cu2.7Al0.3O6.99,73.0
Y1Ba2Cu2.6Al0.4O7,42.0
Y1Ba2Cu2.9Ni0.1O6.87,55.0
Y1Ba2Cu2.8Ni0.2O6.82,45.0
Y1Ba2Cu2.98Co0.02O6.9,93.4
Y1Ba2Cu2.95Co0.05O6.92,94.3
Y1Ba2Cu2.9Co0.1O6.82,73.0
Y1Ba2Cu2.8Co0.2O6.83,53.0
Y1Ba2Cu2.7Co0.3O6.88,22.0
Y1Ba2Cu2.7Ni0.3O6.97,40.0
Y1Ba2Cu2.9Zn0.1O6.81,55.0
Y1Ba2Cu2.8Zn0.2O6.79,45.0
Y1Ba2Cu2.7Zn0.3O6.74,45.0
Y1Ba2Cu3O6.85,92.0
Gd1Ba2Cu3OX,96.4
Gd1Ba1.8Sr0.2Cu3OX,94.7
Gd1Ba1.6Sr0.4Cu3OX,92.4
Gd1Ba1.4Sr0.6Cu3Oz,89.4
Gd1Ba1.2Sr0.8Cu3Oz,90.7
Gd1Ba1Sr1Cu3Oz,88.6
La2.89Na0.11Cu1O4-X,16.0
La2.89Na0.41Cu1O4-X,18.0
Bi1Ca1Sr1Cu2Oz,75.0
Bi1Ca1Sr1Cu2Oz,70.0
Y1Ba2Cu3O7,91.3
Ho1Ba2Cu3O7,92.1
Sm1Ba2Cu3O7,92.6
Y1Ba2Cu3O7-Z,88.1
Eu1Ba2Cu3OX,94.0
Y1Ba2Cu3O6.8,79.0
Nd1Ba2Cu3OX,82.5
Bi1Sr1Ca1Cu2OX,105.0
La1.8Sr0.2Cu1O4,35.7
Y1.2Ba0.8Cu1O4,75.0
Gd1Ba2Cu2.82Fe0.18O9-Z,42.0
Y1.2Ba0.8Cu1O4-X,94.5
Er1Ba2Cu3O7-Z,90.0
Er0.75Yb0.25Ba2Cu3O7-Z,87.6
Er0.62Yb0.38Ba2Cu3O7-Z,88.3
Er0.5Yb0.5Ba2Cu3O7-Z,89.3
Er0.37Yb0.63Ba2Cu3O7-Z,87.8
Er0.25Yb0.75Ba2Cu3O7-Z,86.3
Yb1Ba2Cu3O7-Z,88.5
Y1Ba2Cu2.9Fe0.1OX,90.0
Y1Ba2Cu2.8Fe0.2OX,66.0
Y1Ba2Cu2.7Fe0.3OX,44.0
Y1Ba2Cu2.6Fe0.4OX,22.0
Y1Ba2Cu2.9Ni0.1OX,80.0
Y1Ba2Cu2.8Ni0.2OX,73.0
Y1Ba2Cu2.9Co0.1OX,88.0
Y1Ba2Cu2.7Co0.3OX,50.0
Y1Ba2Cu2.6Co0.4OX,15.0
Y1Ba2Cu2.9Zn0.1OX,58.0
Y1Ba2Cu2.8Zn0.2OX,50.0
Dy1Ba2Cu3OX,91.2
Y1Ba2Cu3OX,90.8
Y1Ba2Cu3OX,91.5
La1.85Sr0.15Cu1O4,40.0
Y1Ba2Cu3O7-Z,92.0
Y1Ba2Cu2.94Ga0.06O7-Z,87.0
Y1Ba2Cu2.85Ga0.15O7-Z,75.0
Y1Ba2Cu2.7Ga0.3O7-Z,66.0
Y1Ba2Cu3O6.98,92.0
Y1Ba2Cu2.88Fe0.12O7-Z,70.0
Gd1Ba2Cu3O7-Z,94.7
Eu1Ba2Cu3O7-Z,94.5
Bi1Sr1Cu1OX,6.5
Nd1Ba2Cu3OX,90.0
Nd1.2Ba1.8Cu3OX,60.0
Nd1.08Ba1.92Cu3OX,86.0
Nd1.32Ba1.68Cu3OX,20.0
Y1Ba2Cu2.97Mo0.03OX,76.0
Y1Ba2Cu2.94Mo0.06OX,63.0
Y1Ba2Cu2.895Mo0.105OX,52.5
Y1Ba2Cu2.85Mo0.15OX,50.0
Y1Ba2Cu2.97Zn0.03OX,79.0
Y1Ba2Cu2.94Zn0.06OX,62.0
Y1Ba2Cu2.895Zn0.105OX,52.0
Y1Ba2Cu2.85Zn0.15OX,38.0
Y1Ba2Cu2.97Al0.03OX,81.0
Y1Ba2Cu2.94Al0.06OX,58.0
Y1Ba2Cu2.885Al0.105OX,42.0
Y1Ba2Cu2.85Al0.15OX,33.0
Y1Ba1.95La0.05Cu3OX,91.0
Y1Ba1.85La0.15Cu3OX,88.0
Y1Ba1.75La0.25Cu3OX,76.0
Y1Ba1.65La0.35Cu3OX,64.0
Y1Ba2Cu3O7-Z,92.5
Nd1Ba2Cu3O7-Z,67.0
Sm1Ba2Cu3O7-Z,76.0
Eu1Ba2Cu3O7-Z,92.0
Gd1Ba2Cu3O7-Z,86.0
Dy1Ba2Cu3O7-Z,92.0
Ho1Ba2Cu3O7-Z,91.0
Er1Ba2Cu3O7-Z,91.0
Tm1Ba2Cu3O7-Z,92.0
Yb1Ba2Cu3O7-Z,91.0
Y1Ba2Cu3HO7-X,90.0
Y1Ba2Cu3HO7-X,43.05
Y1Ba2Cu3O7-X,92.0
Gd1Ba2Cu3O7-Z,93.0
Dy1Ba2Cu3O7-Z,94.0
Sm1Ba2Cu3O7-Z,92.0
Ho1Ba2Cu3O7-Z,93.5
Y1Ba2Cu3O7-Z,93.5
Nd1Ba2Cu3O7,88.0
Nd1Ba2Cu3S1O6,69.0
Nd1Ba2Cu3S1O5,56.0
Eu1Ba2Cu3O7,92.0
Eu1Ba2Cu3S1O6,85.0
Gd1Ba2Cu3O7,92.0
Gd1Ba2Cu3S1O6,92.0
Y1Ba2Cu3O6.89,92.0
Y1Ba2Cu3S0.03O7.12,90.0
Y1Ba2Cu3S0.06O7.23,89.0
Y1Ba2Cu3S0.12O7.28,89.0
Y1Ba2Cu3OY,91.9
Y1Ba2Cu2.975Zn0.025OY,82.8
Y1Ba2Cu2.95Zn0.05OY,74.7
Y1Ba2Cu2.925Zn0.075OY,64.9
Y1Ba2Cu2.9Zn0.1OY,57.6
Y1Ba2Cu2.85Zn0.15OY,56.0
Y1Ba2Cu2.8Zn0.2OY,56.5
Y1Ba2Cu2.7Zn0.3OY,47.6
Gd1Ba2Cu3O6.9,92.0
Gd1Ba2Cu2.7Fe0.3O6.9,41.0
Gd1Ba2Cu2.7Co0.3O6.9,33.0
Y1Ba2Cu3O6.9,91.0
Bi2.2Sr2Ca0.8Cu2O8+Z,87.0
Y1Ba2Cu2.5Ni0.5O7,52.3
La2.8Ba3.2Cu6O14.07,13.0
La2.6Ba3.4Cu6O14.06,26.0
La2.4Ba3.6Cu6O14.01,39.0
La2.2Ba3.8Cu6O13.86,52.0
La2Ba4Cu6O13.8,65.0
Y1La2Ba3Cu6O14.53,25.6
Y1La1.8Ba3.2Cu6O14.49,41.9
Y1La1.6Ba3.4Cu6O14.38,53.1
Y1La1.4Ba3.6Cu6O14.2,64.0
Y1La1.2Ba3.8Cu6O14.07,70.4
Y1La1Ba4Cu6O13.95,72.2
Y2La1Ba3Cu6O14.17,28.0
Y2La0.8Ba3.2Cu6O14.2,46.0
Y2La0.6Ba3.4Cu6O14.02,60.0
Y2La0.4Ba3.6Cu6O13.91,78.0
Y2La0.2Ba3.8Cu6O13.92,93.0
Y2La0.15Ba3.85Cu6O13.99,93.2
Y2La0.1Ba3.9Cu6O13.94,90.0
Y2Ba4Cu6O13.9,93.0
Y1Ba2Cu3O6.94,97.0
Y1Ba1.975La0.025Cu3O6.95,99.0
Y1Ba1.95La0.05Cu3O6.9,99.0
Y1Ba1.925La0.075Cu3O6.9,99.0
Y1Ba1.9La0.1Cu3O6.9,95.0
Y1Ba1.8La0.2Cu3O6.95,78.0
Y1Ba1.7La0.3Cu3O7,67.0
Y1Ba1.6La0.4Cu3O7.05,52.0
Y1Ba1.5La0.5Cu3O7.08,38.0
Gd1Ba2Cu3OX,89.0
Gd1Ba2Cu2.925Fe0.075OX,64.0
Gd1Ba2Cu2.85Fe0.15OX,47.0
Gd1Ba2Cu2.775Fe0.225OX,33.0
Gd1Ba2Cu2.7Fe0.3OX,11.0
Y1Ba2Cu3OX,93.0
Y1Ba2Cu3OX,91.6
La1Ba2Cu3OX,34.5
La1Ba1.75Ca0.25Cu3OX,71.7
La1Ba1.25Ca0.75Cu3OX,78.2
La1Ba1Ca1Cu3OX,80.0
La1Ba0.5Ca1.5Cu3OX,36.7
Y1Ba2Cu2.8Co0.2O7.04,53.0
Bi2Sr2Ca2Cu3O,111.0
Bi2Sr2Ca1Cu2O,87.0
Y1Ba2Cu2.97Co0.03O6.96,92.0
Y1Ba2Cu2.925Co0.075O6.97,92.0
Y1Ba2Cu2.85Co0.15O7.03,65.0
Y1Ba2Cu2.775Co0.225O6.99,58.0
Y1Ba2Cu2.7Co0.3O7.11,36.0
Y1Ba2Cu2.94Ni0.06O7.01,85.0
Y1Ba2Cu2.85Ni0.15O6.84,75.0
Y1Ba2Cu2.7Ni0.3O6.88,73.0
Y1Ba2Cu2.4Ni0.6O6.94,66.0
La1.94Sr0.06Cu1O3.995,6.5
La1.92Sr0.08Cu1O3.994,20.3
La1.89Sr0.11Cu1O3.986,29.2
La1.855Sr0.145Cu1O4,34.9
La1.85Sr0.15Cu1O4,35.2
La1.815Sr0.185Cu1O3.964,33.2
La1.78Sr0.22Cu1O3.945,34.8
La1.75Sr0.25Cu1O3.921,19.6
La1.73Sr0.27Cu1O3.913,30.6
La1Ba2Cu2.9O6.8,45.0
La1.2Ba1.8Cu3O6.98,80.0
Y0.875Lu0.125Ba2Cu3OX,89.7
Y0.75Lu0.25Ba2Cu3OX,88.2
Y0.625Lu0.375Ba2Cu3OX,88.0
Y0.5Lu0.5Ba2Cu3OX,86.7
Y0.375Lu0.625Ba2Cu3OX,86.9
Y0.25Lu0.75Ba2Cu3OX,86.0
Y0.125Lu0.875Ba2Cu3OX,87.9
La1.9Ba0.1Cu1O4,26.9
La1.785Ba0.215Cu1OZ,25.5
La1.9Sr0.1Cu1O3.98,29.5
La1.875Sr0.125Cu1OZ,34.3
La1.85Sr0.15Cu1O3.98,37.9
La1.825Sr0.175Cu1OZ,35.0
La1.8Sr0.2Cu1O3.99,27.5
La1.75Sr0.25Cu1OZ,11.9
La1.9Ca0.1Cu1O3.967,20.0
La1.85Ca0.15Cu1O3.942,19.0
La1.8Ca0.2Cu1O3.917,19.5
Y1Ba2Cu3O6.94,92.5
Y1Ba2Cu3O6.89,92.1
Y1Ba2Cu3O6.84,91.0
Y1Ba2Cu3O6.83,89.3
Y1Ba2Cu3O6.75,92.3
Y1Ba2Cu3O6.7,83.0
Y1Ba2Cu3O6.4,33.0
Y1Ba2Cu2.955Fe0.045O6.89,72.0
Y1Ba2Cu2.9Fe0.1O6.92,48.0
Y1Ba2Cu2.52Al0.48O6.74,68.0
Y1Ba2Cu2.05Al0.95O6.7,63.0
Y1Ba2Cu2.095Al0.095O6.81,83.3
Y1Ba2Cu2.98Zr0.02O6.84,90.2
Y1Ba2Cu2.94Zr0.06O6.81,92.3
Y1Ba2Cu2.98Zr0.2O6.75,89.8
Eu1Ba2Cu3O6.76,77.0
Eu1Ba2Cu3O6.88,94.0
Y1Ba2Cu2.98Fe0.02O6.93,89.0
Y1Ba2Cu2.994Zn0.006O6.63,60.0
Sr0.25La1.75Cu1O4-Y,33.0
Sm0.4Ba0.6Cu1OX,18.0
Eu0.1La1.7Sr0.2Cu1O4,33.0
Y1Ba2Cu3O7-Y,92.3
Y1Ba1.48Sr0.52Cu3O7-Z,95.0
Y1Ba1.48Sr0.52Cu3O7-Z,85.0
Eu1Ba2Cu3OX,93.0
Sm1Ba2Cu3O6.85,92.8
Sm1.05Ba1.95Cu3O6.87,89.75
Sm1.15Ba1.85Cu3O6.95,77.3
Sm1.2Ba1.8Cu3O7.01,56.5
Sm1.28Ba1.72Cu3O7.03,43.6
Sm1.35Ba1.65Cu3O7.07,26.2
Nd1.32Ce0.27Sr0.41Cu1OY,20.0
Y1Ba2Cu3O6.75,89.1
Y1Ba2Cu3O6.72,62.0
Y1Ba2Cu3O6.62,62.0
Er1Ba2Cu3O7-Z,88.0
Bi2Ca1Sr2Cu2O8,88.5
Ba0.65K0.35Bi1O3,23.0
La2Cu1O4.13,28.0
La1.9Sr0.1Cu1O4,26.0
La1.75Sr0.25Cu1O4,30.0
Bi2Sr2Ca1Cu2OX,85.0
Bi2Sr2Ca2Cu3OX,108.0
Tl2Ca1Ba2Cu2OX,106.0
Y1Ba2Cu3O6.8,92.0
Y1Ba2Cu3O7,91.0
Y1Ba2Cu3OX,89.0
Y1Ba2Cu3OX,91.9
Y1Ba2Cu3O7,91.2
Bi2.2Ca1Sr1.9Cu2O8+X,86.5
Bi2Sr1.3Ca0.7Cu1O6.15,84.0
Bi0.8Pb0.2Sb0.05Sr1Ca1Cu2OX,93.0
Bi0.8Pb0.2Sr1Ca1Cu2OZ,108.0
Y1Ba2Cu3OZ,92.0
Y1Ba2Cu2.82Fe0.18OZ,55.0
Y1Ba2Cu2.7Fe0.3OZ,39.0
Bi4.4Sr3.6Ca2Cu4OY,83.6
Pb0.3Bi1.7Sr2Ca2Cu3O10+Z,107.0
Y1Ba2Cu3O6.55,89.0
Y1Ba2Cu3OZ,90.0
Ba0.6K0.4Bi1O3,31.5
Y1Ba2Cu2.85Ag0.15O7,90.0
Y1Ba2Cu3O6.9,90.6
Y1Ba2Cu3O6.82,91.2
Y1Ba2Cu3O6.66,88.9
Y1Ba2Cu3O6.47,43.6
Y1Ba2Cu3O6.46,45.0
Tl1Sr2Ca0.5Sm0.5Cu2O6.75,37.6
Y1Ba2Cu4O8+-Z,82.0
Tl1Ba1.1La0.9Cu1O5,39.6
Tl1Ba1.2La0.8Cu1O5,41.1
Nd1.85Ce0.15Cu1O4-X,21.0
Y1Ba2Cu3O6.86,91.0
Y1Ba2Cu3O6.96,85.0
Tl2Ca2Ba2Cu3OX,120.0
Y1Ba2Cu2.95Ni0.05OX,86.8
Y1Ba2Cu2.9Ni0.1OX,82.9
Y1Ba2Cu2.95Zn0.05OX,72.2
Y1Ba2Cu2.9Zn0.1OX,54.3
Nd1Ba2Cu3OX,93.0
Nd1Ba2Cu2.95Ni0.05OX,85.0
Nd1Ba2Cu2.9Ni0.1OX,70.9
Nd1Ba2Cu2.95Zn0.05OX,65.0
Nd1Ba2Cu2.9Zn0.1OX,36.9
Gd1Ba2Cu3OX,93.4
Gd1Ba2Cu2.95Ni0.05OX,86.2
Gd1Ba2Cu2.9Ni0.1OX,84.5
Gd1Ba2Cu2.95Zn0.05OX,72.5
Gd1Ba2Cu2.9Zn0.1OX,53.6
Dy1Ba2Cu3OX,91.3
Dy1Ba2Cu2.95Ni0.05OX,87.5
Dy1Ba2Cu2.9Ni0.1OX,81.8
Dy1Ba2Cu2.95Zn0.05OX,71.5
Dy1Ba2Cu2.9Zn0.1OX,49.3
Er1Ba2Cu3OX,91.7
Er1Ba2Cu2.95Ni0.05OX,87.8
Er1Ba2Cu2.9Ni0.1OX,83.3
Er1Ba2Cu2.95Zn0.05OX,73.1
Er1Ba2Cu2.9Zn0.1OX,51.8
Bi2Sr1.3Ca0.7Cu1O8-Z,84.0
La1Ba1Ca1Cu3O6.98,76.35
Er1Ba2Cu3O6.15,35.0
Er1Ba2Cu3O6.34,20.0
Er1Ba2Cu3O6.31,55.0
Er1Ba2Cu3O6.67,85.0
Er1Ba2Cu3O6.91,92.0
Ba0.6K0.4Bi1O3,28.9
La1.9Sr0.1Cu1O4,26.2
La1.85Sr0.15Cu1O4,28.6
La1.8Sr0.2Cu1O4,18.9
La1.7Sr0.3Cu1O4,15.2
Y1Ba2Cu3O7-Z,90.0
Y1Ba2Cu3O7-Z,91.7
Y1Ba2Cu3O7-Z,94.0
Y1Ba2Cu3O6.962,92.2
Y1Ba2La1.94Cu3O6.963,91.8
Y1Ba1.92La0.08Cu3O6.965,92.6
Y1Ba1.9La0.1Cu3O6.975,93.9
Y1Ba1.86La0.14Cu3O6.98,89.4
Y1Ba1.8La0.2Cu3O7.013,80.5
Y1Ba1.76La0.24Cu3O7.024,73.4
Y1Ba1.7La0.3Cu3O7.059,61.4
Y1Ba1.66La0.34Cu3O7.073,56.0
Y1Ba1.6La0.4Cu3O7.083,49.4
Y1Ba1.54La0.46Cu3O7.118,44.1
Y1Ba2Cu2.95Co0.05O6.88,91.2
Y1Ba2Cu2.9Co0.1O6.89,55.3
Y1Ba2Cu2.7Co0.3O6.93,16.9
Y1Ba2Cu2.82Fe0.18O7,74.0
Y1Ba2Cu2.64Fe0.36O7,32.0
Bi2Ca1Sr2Cu2O8+Z,81.0
Bi2Ca2Sr1Cu2O8+Z,70.0
Bi2Ca1.5Y0.5Sr1Cu2O8+Z,65.0
Tl2Ca2Ba2Cu3OZ,125.0
Tl2Ca1Ba2Cu2OZ,108.0
Nd1.85Ce0.15Cu1O4-Z,22.3
Nd1.3Ce0.2Sr0.5Cu1O4-Z,24.0
La2Cu1O4+Z,35.0
Tb1Pb1Sr2Ca3Cu4OZ,36.0
Ho1Pb1Sr2Ca3Cu4OZ,41.0
Er1Pb1Sr2Ca3Cu4OZ,33.0
Tm1Pb1Sr2Ca3Cu4OZ,38.0
Yb1Pb1Sr2Ca3Cu4OZ,48.0
Lu1Pb1Sr2Ca3Cu4OZ,33.0
Y1Pb1Sr2Ca3Cu4OZ,31.0
La1Pb1Sr2Ca3Cu4OZ,22.0
Ce1Pb1Sr2Ca3Cu4OZ,62.0
Pr1Pb1Sr2Ca3Cu4OZ,18.0
Nd1Pb1Sr2Ca3Cu4OZ,40.0
Sm1Pb1Sr2Ca3Cu4OZ,35.0
Eu1Pb1Sr2Ca3Cu4OZ,38.0
Gd1Pb1Sr2Ca3Cu4OZ,42.0
Nd1.2Ce0.35Sr0.45Cu1O4-Z,21.2
Nd1Ba2Cu3O7-Z,94.2
Nd1.1Ba1.9Cu3O7-Z,78.5
Nd1.2Ba1.8Cu3O7-Z,48.8
Nd1.3Ba1.7Cu3O7-Z,34.2
Y1Ba2Cu3OZ,89.8
Tl2Ba2Ca1Cu2OX,106.0
Tl2Ba2Ca2Cu3OX,129.0
Gd1Ba2Cu2.64Fe0.36O6.99,21.0
Gd1Ba2Cu3O6.99,94.0
Gd1Ba2Cu2.91Fe0.09O6.94,75.0
Gd1Ba2Cu2.82Fe0.18O6.91,41.0
Gd1Ba2Cu2.73Fe0.27O6.98,40.0
Sm1Ba2Cu3O7,88.1
Gd1Ba2Cu3OZ,92.7
Gd1Ba2Cu2.972Fe0.03OZ,90.0
Gd1Ba2Cu2.95Fe0.05OZ,89.1
Gd1Ba2Cu2.93Fe0.07OZ,86.9
Gd1Ba2Cu2.9Fe0.1OZ,75.3
Gd1Ba2Cu2.85Fe0.15OZ,69.1
Gd1Ba2Cu2.8Fe0.2OZ,58.7
Gd1Ba2Cu2.7Fe0.3OZ,36.2
Y1Ba2Cu3O6.96,88.1
La1.8Sr0.2Cu1O3.95,30.4
Bi2Sr2Ca1Cu2O8+Z,72.5
Bi2Sr2Ca0.9Lu0.1Cu2O8+Z,83.5
Bi2Sr2Ca0.8Lu0.2Cu2O8+Z,89.5
Bi2Sr2Ca0.7Lu0.3Cu2O8+Z,87.0
Bi2Sr2Ca0.6Lu0.4Cu2O8+Z,65.0
Bi2Sr2Ca0.5Lu0.5Cu2O8+Z,29.0
Bi2Sr2Ca0.9Na0.1Cu2O8+Z,70.5
Bi2Sr2Ca0.8Na0.2Cu2O8+Z,73.5
Bi2Sr2Ca0.7Na0.3Cu2O8+Z,72.5
Bi2Sr2Ca1Cu2O8+Z,60.0
Bi2Sr2Ca0.9Na0.1Cu2O8+Z,63.5
Bi2Sr2Ca0.8Na0.2Cu2O8+Z,66.0
Bi2Sr2Ca0.7Na0.3Cu2O8+Z,65.5
Bi2Sr2Ca1Cu2O8+Z,49.5
Bi2Sr2Ca0.9Na0.1Cu2O8+Z,51.0
Bi2Sr2Ca0.8Na0.2Cu2O8+Z,53.0
Bi2Sr2Ca0.7Na0.3Cu2O8+Z,54.0
Y1Ba2Cu3O6.45,40.0
Y1Ba2Cu3O6.5,20.0
Y1Ba2Cu3O6.8,83.0
Y1Ba2Cu3O7-Z,82.0
Y1Ba2Cu3O6.8,91.4
Y1Ba2Cu3O6.95,89.0
Bi1.84Pb0.34Sr1.91Ca2.03Cu3.06OZ,105.0
Bi0.7Pb0.3Sr1Ca1Cu1.8O6,73.0
Bi1Sr1Ca1Cu2OX,80.0
Bi2Sr1.8La0.2Ca1Cu2O8+X,85.0
Bi2Sr1.6La0.4Ca1Cu2O8+X,74.0
Bi2Sr1.4La0.6Ca1Cu2O8+X,25.5
Bi2Sr1.8K0.2Ca1Cu2O8+X,75.0
Bi2Sr1.6K0.4Ca1Cu2O8+X,78.0
Bi2Sr1.8K0.2Ca1Cu2O8+X,66.5
Bi2Sr1.6K0.4Ca1Cu2O8+X,73.0
Bi2Sr1.8K0.2Ca1Cu2O8+X,55.5
Bi2Sr1.6K0.4Ca1Cu2O8+X,64.0
Y0.9Pr0.1Ba2Cu3O7-Z,83.3
Y0.8Pr0.2Ba2Cu3O7-Z,75.2
Y0.7Pr0.3Ba2Cu3O7-Z,59.1
Y0.6Pr0.4Ba2Cu3O7-Z,49.4
Y0.5Pr0.5Ba2Cu3O7-Z,28.9
Er1Ba2Cu3O6.53,54.3
Er1Ba2Cu3O6.64,61.3
Er1Ba2Cu3O6.78,78.2
Er1Ba2Cu3O6.87,94.5
Er1Ba2Cu3O7,92.5
Bi2Sr2Ca0.9Y0.1Cu2O8+Z,81.5
Bi2Sr2Ca1Cu2O8+Z,70.7
Bi2Sr2Ca0.8Y0.2Cu2O8+Z,84.5
Bi2Sr2Ca0.7Y0.3Cu2O8+Z,80.0
Bi2Sr2Ca0.6Y0.4Cu2O8+Z,71.5
Bi2Sr2Ca0.5Y0.5Cu2O8+Z,12.0
Bi2Sr2Ca0.55Y0.45Cu2O8+Z,42.0
Y1Ba2Cu3O6.96,88.5
Y0.9Pr0.1Ba2Cu3O6.91,81.0
Y0.8Pr0.2Ba2Cu3O6.91,62.7
Y0.7Pr0.3Ba2Cu3O6.88,47.5
Y0.65Pr0.35Ba2Cu3O7.01,44.5
Y0.6Pr0.4Ba2Cu3O6.9,32.0
Y0.55Pr0.45Ba2Cu3O7.01,29.2
Y1Ba2Cu3O7,92.1
Eu1Ba2Cu3O7,92.15
Y1Ba2Cu3O7.1,91.3
La1.85Sr0.15Cu1O4,35.0
Bi2La0.5Ca1.5Cu2OZ,39.6
Bi2La0.3Ca2.7Cu2OZ,20.2
Bi2Pr0.5Ca1.5Cu2OZ,46.8
Ba0.6K0.4Bi1O3,29.0
La1Ba2Cu2.9O6.82,45.0
La1Ba2Cu3O6.85,93.0
Y1Ba2Cu3O6.9,92.0
Y1Ba2Cu2.9Zn0.1O6.94,57.0
Y1Ba2Cu2.9Al0.1O7.1,85.0
Y1Ba2Cu2.9Sn0.1O7.28,90.0
Tl2Ba2Ca2Cu3OZ,119.0
La2Cu1O4,21.5
La1.88Ba0.12Cu1O4,35.0
La1.84Sr0.16Cu1O4,37.0
La1.84Sr0.16Cu0.987Ni0.013O4,25.0
La1.84Sr0.16Cu0.975Ni0.025O4,15.0
Bi4Ca3Sr3Cu4O16,84.5
Bi4Ca3Sr3Cu4O16,93.5
Bi4Ca3Sr3Cu4O16,86.5
Bi2Sr2Cu1O6+Y,10.0
Bi2Sr2Ca1Cu2O8+Y,85.0
Bi2Sr2Ca2Cu3O10+Y,110.0
Bi1Sr1Ca1Cu2OX,110.0
Bi2Sr2Ca1Cu2OX,80.0
Eu1Ba2Cu3O7-Z,90.0
Bi2.15Sr1.68Ca1.17Cu2OZ,68.0
Bi2.4Sr2Ca1.6Cu3OZ,70.0
Li0.9Mo6O17,1.7
Bi2.2Sr2Ca1.8Cu3OZ,30.0
Bi2Sr2Ca2Cu3OZ,76.0
Bi1.95Sr2Ca2Cu3OZ,58.0
Bi1.8Sr2Ca2Cu3OZ,95.0
Bi1.7Sr2Ca2Cu3Pb0.3OZ,106.0
Bi1.9Sr2Ca2Cu3Pb0.3OZ,104.0
Bi1.8Sr2Ca2Cu3Pb0.6OZ,104.0
Y1Ba2Cu3O7-Z,92.6
Y1Ba2Cu2.97Al0.03O7-Z,86.1
Y1Ba2Cu2.94Al0.06O7-Z,80.3
Y1Ba2Cu2.88Al0.12O7-Z,68.6
Y1Ba2Cu2.82Al0.18O7-Z,72.1
Y1Ba2Cu2.76Al0.24O7-Z,72.1
Y1Ba2Cu2.7Al0.3O7-Z,59.4
Y1Ba2Cu2.97Fe0.03O7-Z,89.0
Y1Ba2Cu2.949Fe0.051O7-Z,78.0
Y1Ba2Cu2.901Fe0.099O7-Z,62.0
Y1Ba2Cu2.799Fe0.201O7-Z,39.0
Y1Ba2Cu3O7-Z,89.0
Y0.33Ba0.67Cu3OX,97.0
Y2Ba3Cu5OX,97.0
Y1Ba2Cu3O7.1,92.0
Y1.1Ba2Cu3OX,77.5
Ba1Pb0.8Bi0.2O3,9.5
Y1Ba2Cu3O7-Z,92.2
Y1Ba2Cu2.94Ga0.06O7-Z,86.9
Y1Ba2Cu2.91Ga0.09O7-Z,77.5
Y1Ba2Cu2.88Ga0.12O7-Z,68.2
Y1Ba2Cu2.85Ga0.15O7-Z,68.2
Y1Ba2Cu2.82Ga0.18O7-Z,58.2
Y1Ba2Cu2.76Ga0.24O7-Z,45.7
Y1Ba2Cu2.7Ga0.3O7-Z,24.7
La1Ba2Cu3O7-Z,92.0
Tl2Sr2Ca2Cu3O10+X,16.0
Tl2Sr1Ca2Cu3O9+X,70.0
Tl2.2Ca2Ba2.14Cu3.72OY,110.0
Bi1.7Sr1.3Ca2Cu3OX,95.0
Y1Ba2Cu3O6.94,95.0
Y1Ba2Cu3O7,91.8
Y1Ba2Cu3O6.78,85.4
Y1Ba2Cu3O6.76,77.8
Y1Ba2Cu3O6.72,60.8
Y1Ba2Cu3O6.6,58.9
Y1Ba2Cu3O6.53,54.8
Y1Ba2Cu3O6.51,45.4
Y1Ba2Cu3O6.3,28.0
Y1Ba2Cu2.73Fe0.27O7.1,69.0
La1.85Sr0.15Cu1O4,37.8
La1.85Sr0.15Cu0.995Zn0.005O4,35.1
La1.85Sr0.15Cu0.99Zn0.01O4,30.1
La1.85Sr0.15Cu0.985Zn0.015O4,22.1
La1.85Sr0.15Cu0.98Zn0.02O4,6.5
Y1Ba2Cu3O6.41,22.5
Y1Ba2Cu3O7,92.5
Y1Ba2Cu3O6.89,64.7
Y1Ba2Cu3O6.67,52.5
Y1Ba2Cu3O6.56,50.4
Y1Ba2Cu3O6.49,37.5
Y1Ba2Cu2.955Fe0.045O7-Z,82.6
Y1Ba2Cu2.895Fe0.105O7-Z,67.0
Y1Ba2Cu2.85Fe0.15O7-Z,61.0
Y1Ba2Cu2.7Fe0.3O7-Z,2.0
Y1Ba2Cu2.829Zn0.171O7-Z,2.2
Y1Ba2Cu2.85Zn0.15O7-Z,12.5
Y1Ba2Cu2.868Zn0.132O7-Z,19.3
Y1Ba2Cu2.901Zn0.099O7-Z,37.5
Y1Ba2Cu2.919Zn0.081O7-Z,47.4
Y1Ba2Cu2.949Zn0.051O7-Y,62.7
Y1Ba2Cu2.97Zn0.03O7-Y,72.3
Y1Ba2Cu3O7-Y,87.8
Y1Ba2Cu3O7-X,91.25
Y1Ba2Cu3S0.001O7-X,92.0
Y1Ba2Cu3S0.05O7-X,93.5
Y1Ba2Cu3Se0.05O7-X,91.0
Y1Ba2Cu3O6.9,80.0
Sm1Ba2Cu3O6.944,94.0
Sm1.2Ba1.8Cu3O6.965,47.0
Sm1.1Ba1.9Cu3O7-Z,73.0
Sm1.35Ba1.65Cu3O7-Z,8.5
Bi2Sr2Ca0.67Y0.33Cu2O8+Z,34.3
Bi2Sr2Ca0.83Y0.17Cu2O8+Z,48.4
Bi2Sr2Ca1Cu2O8+Z,52.4
Bi2Sr2Ca0.5Y0.5Cu2O8+Z,17.0
Bi1Pb0.1Sr1Ca1Cu2OX,111.0
Bi1Pb0.2Sr1Ca1Cu2OX,109.0
Bi1Pb0.3Sr1Ca1Cu2OX,105.0
Bi1Pb0.4Sr1Ca1Cu2OX,101.5
Bi0.8Pb0.1Sr0.8Ca1Cu1.4OX,101.0
Bi0.8Pb0.2Sr0.8Ca1Cu1.4OX,105.5
Bi0.8Pb0.3Sr0.8Ca1Cu1.4OX,104.0
Bi0.8Pb0.4Sr0.8Ca1Cu1.4OX,100.5
Y1Ba1.95Cs0.05Cu3O7-Z,85.5
Bi2.2Sr1.8Ca1Cu2OY,90.0
Y1Ba2Cu3O6.9,82.0
Y1Ba2Cu3O6.95,89.9
Y1Ba2Cu3O7,91.1
Eu1Ba2Cu3OY,94.8
Y1Ba2Cu3O7,93.15
Y1Ba2Cu3O7-Z,92.11
Y0.96Tb0.04Ba2Cu3O7-Z,92.01
Y0.92Tb0.08Ba2Cu3O7-Z,92.01
Y0.88Tb0.12Ba2Cu3O7-Z,92.1
Y1Ba2Cu3O7,91.06
Y1Ba2Cu2.97Ga0.03O7,90.88
Y1Ba2Cu2.94Ga0.06O7,87.99
Y1Ba2Cu2.91Ga0.09O7,83.71
Y1Ba2Cu2.88Ga0.12O7,79.89
Y1Ba2Cu2.85Ga0.15O7,78.49
Y1Ba2Cu2.82Ga0.18O7,79.24
Y1Ba2Cu2.79Ga0.21O7,76.91
Y1Ba2Cu2.76Ga0.24O7,71.79
Y1Ba2Cu2.73Ga0.27O7,67.04
Y1Ba2Cu2.67Ga0.33O7,65.64
Y1Ba2Cu2.61Ga0.39O7,64.8
Y1Ba2Cu2.55Ga0.45O7,65.36
Y1Ba2Cu2.4Ga0.6O7,63.31
Y1Ba2Cu3O7,89.66
Y1Ba2Cu2.97Zn0.03O7,78.21
Y1Ba2Cu2.94Zn0.06O7,67.04
Y1Ba2Cu2.91Zn0.09O7,55.87
Y1Ba2Cu2.88Zn0.12O7,47.02
Y1Ba2Cu2.85Zn0.15O7,45.53
Y1Ba2Cu2.82Zn0.18O7,46.18
Y1Ba2Cu2.885Zn0.195O7,32.4
Y1Ba2Cu2.79Zn0.21O7,35.2
Y1Ba2Cu2.7Zn0.3O7,27.0
Y1Ba2Cu2.76Zn0.24O7,29.05
Bi2Sr2.8Nd0.2Cu2OY,62.94
Bi2Sr2.7Nd0.3Cu2OY,63.38
Bi2Sr2.6Nd0.4Cu2OY,55.28
Bi2Sr2.5Nd0.5Cu2OY,50.09
Bi2Sr2Ca1Cu2OY,72.18
Bi2Sr1.9La0.1Ca1Cu2OY,85.04
Bi2Sr1.8La0.2Ca1Cu2OY,90.58
Bi2Sr1.7La0.3Ca1Cu2OY,86.0
Bi2Sr1.6La0.4Ca1Cu2OY,75.18
Bi2Sr1.5La0.5Ca1Cu2OY,55.63
Bi2Sr1.4La0.6Ca1Cu2OY,39.44
Bi1Sr1Cu1OY,5.28
Bi1Sr0.95Nd0.05Cu1OY,8.01
Bi1Sr0.9Nd0.1Cu1OY,10.74
Bi1Sr0.85Nd0.15Cu1OY,13.56
Bi1Sr0.8Nd0.2Cu1OY,14.79
Bi1Sr0.75Nd0.25Cu1OY,14.96
Bi1Sr0.7Nd0.3Cu1OY,13.2
Bi1Sr0.65Nd0.35Cu1OY,10.21