composition,critical_temperature_tc
Nb0.05Re0.75Ta0.2,9.8
Nb0.29Re0.71,5.6
Nb0.38Re0.62,2.45
Nb0.4Re0.6,2.36
Nb1S3Sn1,2.85
Nb1S2,5.5
Nb1S2,6.2
Nb1Ru3,12.0
Nb0.4Ru0.6,2.5
Nb0.6Ru0.4,1.2
Nb0.8Ru0.2,4.8
Nb0.9Ru0.1,2.8
Nb0.925Ru0.075,4.2
Nb0.05Rh0.04Ti0.91,2.4
Nb0.45Re0.55,6.2
Nb0.375Rh0.625,2.7
Nb3Si1,1.5
Nb1Se3Sn1,3.09
Nb1Se2,7.0
Nb1Se2,7.38
Nb1Se2,6.95
Nb1Se2,7.3
Nb3Se4,1.61
Nb0.25Sb0.25Ti0.5,2.05
Nb0.5Sb0.25Ti0.25,3.05
Nb3Sb0.15Sn0.7Tl0.15,16.04
Nb5Sb4,8.6
Nb0.83Sb0.17,1.95
Nb0.84S0.16,5.6
Nb0.92Sn0.08,5.6
Nb3Sn1,18.3
Nb3Sn1,18.07
Nb0.03Si1V2.97,15.8
Nb3Si1Sn1V3,4.0
Nb3Si0.06Sn0.94,17.8
Nb3Si0.25Sn0.75,16.4
Nb3Si0.27Sn0.73,13.9
Nb3Si0.5Sn0.5,8.3
Nb3Si0.6Sn0.4,6.5
Nb0.69Sn0.25Ta0.06,17.8
Nb1Sn2,2.68
Nb0.5Sn0.5,17.5
Nb0.5Sn0.5,17.91
Nb6Sn5,2.07
Nb3Sn2,17.2
Nb0.72Sn0.28,18.2
Nb0.76Sn0.74,18.1
Nb0.8Sn0.2,17.3
Nb0.8Sn0.2,18.5
Nb0.8Sn0.2,7.5
Nb0.991Ta0.009,8.87
Nb0.75Sn0.125Zr0.125,16.7
Nb0.25Sn0.25V0.5,5.5
Nb0.375Sn0.25V0.375,7.4
Nb0.5Sn0.25V0.25,9.8
Nb0.625Sn0.25V0.125,14.2
Nb3Sn0.85Tl0.15,18.2
Nb0.25Sn0.25Ta0.25V0.25,6.2
Nb0.5Sn0.25Ta0.125V0.125,12.2
Nb0.25Sn0.25Ta0.5,10.8
Nb0.5Sn0.25Ta0.25,16.4
Nb0.625Sn0.25Ta0.125,17.6
Nb0.17Ta0.83,4.65
Nb0.2Ta0.8,4.64
Nb0.92Ta0.71,4.94
Nb0.37Ta0.63,5.31
Nb0.47Ta0.53,6.2
Nb0.5Ta0.5,6.25
Nb0.64Ta0.36,6.8
Nb0.803Ta0.197,7.85
Nb0.87Ta0.13,8.15
Nb0.938Ta0.062,8.42
Nb0.957Ta0.043,8.55
Nb0.984Ta0.016,8.76
Nb0.95Ti0.05,9.41
Nb1Te2,0.66
Nb3Te4,1.49
Nb0.03Tc0.97,12.8
Nb0.06Tc0.94,12.8
Nb0.24Tc0.76,12.9
Nb0.42Tc0.58,10.9
Nb0.93Tc0.07,7.0
Nb0.97Tc0.03,7.6
Nb0.31Ta0.06Ti0.62,9.0
Nb0.025Ta0.975,4.465
Nb0.5Ti0.3V0.2,7.8
Nb0.025Ti0.975,1.5
Nb0.22Ti0.8,7.8
Nb0.25Ti0.75,7.4
Nb0.33Ti0.67,9.3
Nb0.44Ti0.56,8.99
Nb0.5Ti0.5,10.3
Nb0.55Ti0.45,9.4
Nb0.6Ti0.4,9.8
Nb0.7Ti0.3,10.1
Nb0.75Ti0.25,10.02
Nb0.9Ti0.1,9.61
Nb0.26U0.74,1.85
Nb0.222U0.778,1.98
Nb0.19Ti0.74Zr0.07,9.1
Nb0.21Ti0.61Zr0.18,7.21
Nb0.35Ti0.6Zr0.05,8.6
Nb0.35Ti0.15Zr0.5,9.3
Nb0.5Ti0.1Zr0.4,10.3
Nb0.75Ti0.15Zr0.1,9.7
Nb0.1Ti0.4V0.5,5.3
Nb0.4Ti0.4V0.2,7.6
Nb0.5Ti0.2V0.3,8.5
Nb0.1Zr0.9,7.6
Nb0.13Zr0.87,6.42
Nb0.15Zr0.85,6.2
Nb0.2Zr0.8,8.0
Nb0.25Zr0.75,10.45
Nb0.38Zr0.62,8.7
Nb0.5Zr0.5,10.75
Nb0.6Zr0.4,10.75
Nb0.68Zr0.32,10.05
Nb0.75Zr0.25,11.0
Nb0.85Zr0.15,10.8
Nb0.5V1.5Zr1,4.3
Ni0.1Zr0.9,1.5
Ni1Zr2,1.6
Ni0.5V0.16Zr0.34,0.43
Ni0.22V0.78,0.35
Ni1U6,0.86
Ni3Th7,1.98
Ni1Ta2,0.9
Ni0.05Rh0.04Ti0.91,3.5
Ni0.1Pd0.9Te2,1.3
Ni0.05Pd0.95Te2,1.4
Nb0.2Zr0.8,9.2
Nb0.04Zr0.96,4.9
O3Tl0.03W1,2.14
O1.07Ti1,1.0
O1Ti1,1.06
O1Ti1,0.6
O3Sr0.08W1,4.0
O1Sn1,3.81
O0.105Rh0.285Zr0.61,11.8
O0.14Rh0.287Ti0.573,3.37
O1Re1Ti1,5.74
O3Rb0.33W1,7.7
O0.105Pd0.285Zr0.61,2.09
Nb1O1,1.39
Os1Ti1,0.46
Os3Th7,1.51
Os1Ta1,1.95
Os2Sc1,4.6
Os0.05Rh0.04Ti0.91,3.5
Os0.97Rh0.03,0.09
Os1Re1Y1,2.0
Os0.058Re0.942,1.93
Os1,0.66
O1W3,3.35
O1V3Zr3,7.5
O0.03V0.97,2.4
P1Pb1,7.8
Os0.06Zr0.94,5.6
Os2Zr1,3.0
Os2Y1,4.7
Os0.075W0.925,0.9
Os0.1W0.9,1.5
Os0.15W0.85,2.2
Os0.25W0.75,3.02
Os0.34W0.66,3.81
Os0.74W0.26,4.4
Os0.5V0.5,5.15
Os0.55V0.45,5.04
Pb1Pt1,7.2
Pb0.8Pt0.2,2.8
Pb2Pd1,3.01
Pb1Mo6S7,11.1
Pb1,7.195
Pa0.75Zr0.25,1.54
Pa1,1.4
P1W3,2.76
P1Sn1,4.0
P0.3Si0.7V3,14.75
P0.2Si0.8V3,16.6
Pb3Th1,5.55
Pb3Sr1,1.85
Pb0.9Sn0.1,7.17
Pb0.01Sn0.99,3.752
Pb0.28Sn0.72,7.05
Pb0.36Sn0.64,7.75
Pb0.57Sn0.43,7.45
Pb0.9Sb0.1,6.28
Pb1Sb1,6.6
Pb1S3Ta1,3.11
Pb1.9Rh1,1.32
Pb2Rh1,2.66
Pb0.9Zn0.1,7.12
Pb3Yb1,0.23
Pb3Y1,4.72
Pb1Tl2,4.1
Pb0.35Tl0.65,3.8
Pb0.6Tl0.4,5.8
Pb0.73Tl0.27,6.43
Pb0.79Tl0.21,6.43
Pb0.85Tl0.15,6.73
Pb0.89Tl0.11,6.88
Pb0.93Tl0.075,6.98
Pb0.96Tl0.04,7.06
Pd1Sb2,1.25
Pd1Sb1,1.66
Pd2.2S1,1.63
Pd0.05Ru0.05Zr0.9,9.0
Pd0.02Rh0.31Zr0.67,9.85
Pd0.04Rh0.29Zr0.67,8.56
Pd0.05Rh0.04Ti0.91,3.7
Pd0.95Rh0.05Te2,1.65
Pd0.95Pt0.05Te2,1.71
Pd0.9Pt0.1Te2,1.65
Pb1Zr3,0.76
Pb3Zr5,4.6
Pd1Sn1,0.41
Pd3Sn2,0.64
Pd2Sn1,0.41
Pd1Si1,0.93
Pd0.67Se0.33,2.2
Pd5Se2,2.3
Pd4Se1,0.42
Pd6.7Se1,0.66
Pd1Sb1Te1,1.2
Pd1Sb1Se1,1.0
Pd0.51Sb0.49,1.67
Pd0.165Sb0.835,4.9
Pd1Tl2,1.32
Pd1Th2,0.75
Pd0.87Te2,1.85
Pd0.95Te2,1.89
Pd1.05Te2,1.77
Pd1Te2,1.69
Pd1.25Te2,2.2
Pd1.5Te2,2.21
Pd1.75Te2,2.25
Pd1Te1,3.85
Pd3Te1,0.76
Pd1Sn2,3.34
Pt1Th1,0.44
Pt5Th1,3.13
Pt1Te1,0.59
Pt0.15Ta0.85,0.4
Pt0.3Ta0.7,1.45
Pt1Ta1,1.0
Pt1Sn1,0.37
Pt1Si1,0.88
Pt1Sb1,2.1
Pt0.05Rh0.04Ti0.91,4.3
Pd0.1Zr0.9,7.5
Pd1V3,0.082
Pt2Y1,1.57
Pt2.2Y1,1.7
Pt0.5W0.5,1.45
Pt0.22V0.78,1.76
Pt1V3,3.62
Pt1V3,3.2
Pt0.017U0.983,0.85
Pt0.02U0.98,0.87
Pt1Tl2,1.58
Pt1Ti3,0.58
Pt3Th7,0.98
Re1Ta1,1.3
Re0.65Ta0.35,1.58
Re0.75Ta0.25,6.78
Re0.83Ru0.17,2.23
Re0.05Rh0.04Ti0.91,2.3
Os0.06Re0.94,1.93
Re1,7.0
Re1,1.696
Pt1Zr1,3.0
Pt0.42Y0.58,0.76
Pt3Y7,0.82
Pt2Y3,0.9
Re0.15W0.85,2.4
Re0.25W0.75,4.6
Re0.6W0.4,6.0
Re3W1,9.0
Re0.6V0.4,2.2
Re0.76V0.24,4.52
Re0.9V0.1,9.4
Re0.92V0.08,6.8
Re0.83Ti0.17,9.0
Re24Ti5,6.6
Re2Th1,5.05
Re0.75Ta0.25,4.7
Rh0.53Se0.47,6.0
Rh0.04Sc0.05Ti0.91,1.3
Rh0.24Sc0.76,0.92
Rh17S15,5.8
Rh0.04Ru0.05Ti0.91,3.5
Re24Zr5,3.0
Re6Zr1,7.4
Re0.67Zr0.33,6.8
Re0.67Y0.33,1.83
Re0.5W0.5,8.1
Re0.6W0.4,9.7
Re0.73W0.27,8.3
Rh3Th7,2.15
Rh1Th1,0.36
Rh5Th1,1.07
Rh0.67Te0.33,0.49
Rh1Te2,1.51
Rh0.04Ta0.05Ti0.91,2.3
Rh0.33Ta0.66,7.0
Rh0.4Ta0.6,2.35
Rh1Ta1,2.0
Rh2Sr1,6.2
Rh1Sn2,0.6
Rh0.36Se0.64,6.0
Rh0.02U0.98,0.96
Rh0.91Ti0.04Zr0.05,1.8
Rh0.91Ti0.04Y0.05,1.4
Rh0.91Ti0.4W0.05,3.4
Rh0.91Ti0.4V0.05,2.9
Rh0.04Ti0.96,2.0
Rh0.06Ti0.94,2.6
Rh0.08Ti0.92,3.5
Rh0.1Ti0.9,4.0
Rh0.12Ti0.88,4.0
Rh0.88Ti0.12,4.0
Rh0.91Ti0.09,2.0
Rh1Zr3,11.0
Rh0.33Zr0.67,11.25
Rh1Zr2,11.36
Rh0.4Zr0.6,7.0
Rh1Zr1,2.7
Rh1Y3,0.65
Rh2Y3,1.48
Rh3Y1,1.07
Rh5Y1,0.56
Rh0.3W0.7,7.3
Rh1W1,3.37
Rh0.35V0.65,1.075
Ru0.46V0.54,5.0
Ru1Ti1,1.07
Ru2Th1,3.56
Ru2Sc1,2.24
Ru1,0.493
Rh0.25Zr0.75,11.4
Rh0.33Zr0.66,11.2
Rh0.03Zr0.97,10.4
Rh0.12Zr0.88,11.0
Rh0.14Zr0.86,11.1
Rh0.14Zr0.86,9.5
Rh0.17Zr0.83,9.6
S1.2Se0.8Ta1,3.9
Ru0.1Zr0.9,5.7
Ru2Zr1,2.4
Ru2Y1,2.42
Ru0.4W0.6,5.0
Ru0.5W0.5,5.7
Ru0.4W0.6,4.67
Ru1W1,7.5
Ru0.58W0.42,5.2
Ru0.4V0.6,1.0
Ru0.45V0.55,4.0
Ru0.452V0.548,4.2
Sb0.05Sn0.95,3.75
Sb0.4Sn0.6,3.8
Sb1Sn1,1.56
Sb0.7Sn0.3,2.85
S1.1Zr1,4.5
S1Y1,1.9
S2Ta1,0.8
S2Ta1,1.6
S3Sn1Ta1,2.96
S0.8Se1.2Ta1,3.9
S1Se1Ta1,3.7
Sc0.01Zr0.99,0.32
Sc0.05Zr0.95,0.11
Sc0.07Zr0.93,0.08
Sb2Zr3,1.74
Sb0.03V0.97,2.63
Sb1V3,0.8
Sb0.28Tl0.72,5.2
Sb0.66Tl0.33,5.2
Sb0.25Ti0.75,7.2
Sb1Ti3,5.47
Sb1Ta3,0.72
Sb0.011Sn0.989,3.642
Si0.25V0.75,16.86
Si0.25V0.75,16.95
Si0.25V0.75,17.0
Si0.25V0.75,17.1
Si0.263V0.737,15.8
Si0.3V0.7,16.95
Si1Ti0.15V2.85,14.55
Si2Th1,2.41
Si2Th1,3.16
Si3Sr2,0.55
Se1Y1,2.5
Sn0.35Te0.65,1.9
Sn0.25Ta0.5V0.25,3.7
Sn0.25Ta0.25V0.5,2.8
Sn1Ta3,6.4
Sn1Ta3,6.2
Sn1Ta3,8.35
Si0.4W0.6,2.84
Si0.22V0.78,14.38
Si0.2V0.8,7.51
Si0.206V0.794,14.5
Si0.25V0.75,16.6
Si0.25V0.75,16.65
Ta0.05V2Zr0.95,8.9
Ta0.25V0.75,2.8
Ta0.5V0.5,2.35
Ta0.75V0.25,2.65
Ta0.52Ti0.48,7.86
Ta1,4.463
Sn1Zr4,0.92
Sn0.91Zn0.09,3.722
Sn1V3,7.0
Sn1V3,3.8
Sn3Th1,3.33
Sn0.25Te0.75,1.7
Tc0.1V0.9,1.5
Tc0.6V0.4,4.17
Tc0.65V0.35,4.49
Tc0.7V0.3,6.41
Tc0.7V0.3,8.3
Tc0.75V0.25,11.07
Tc0.8V0.2,11.24
Tc0.9V0.1,11.32
Tc0.95V0.05,10.99
Tc0.44Th0.56,5.3
Tc1,7.46
Ta0.96Zr0.04,5.7
Ti0.975V0.025,1.4
Ti1,0.4
Th2Zn1,0.67
Th0.5Y0.5,1.25
Th1U0.001,0.785
Th1Tl3,0.87
Th1,1.39
Te1Y1,2.05
Te3Tl5,2.078
Tc2Zr1,7.6
Tc6Zr1,9.7
Tc0.9W0.1,10.4
Ti0.013V0.987,12.8
Ti0.42V0.58,7.52
Ti1V1,6.09
Ti0.516V0.484,7.2
Ti0.6V0.4,7.0
Ti0.615V0.385,7.07
Ti0.7V0.3,6.14
Ti0.75V0.25,5.3
Ti0.76V0.24,4.382
Ti0.775V0.225,4.7
Ti0.9V0.1,6.3
Ti0.96V0.04,2.7
Tl1,1.38
Tl1,1.45
Tl1,2.4
Tl1,2.332
Ti0.81Zr0.82,1.03
Ti0.33Zr0.66,1.35
Ti0.5Zr0.5,1.65
Ti0.5Zr0.5,1.23
Ti0.66Zr0.33,1.36
Ti0.17V0.5Zr0.33,7.6
Ti0.33V0.33Zr0.33,6.6
V0.4Zr0.6,7.8
V0.6Zr0.4,8.3
V2Zr1,9.0
V2Zr1,8.5
V0.7Zr0.3,8.6
Tl3Y1,1.52
Cs0.3Mo1S2,6.3
Zn1,0.857
Y1,2.5
Mg0.93Pb0.07,0.013
Mo5S6Zn1,3.2
Mo6Pb0.92S7.5,14.0
N0.34Re1,5.0
N1Ta1,4.84
Nb3Pt1,11.0
Nb1P1S1,12.5
Nb1Se2,8.8
Nb1Se2,7.77
Nb3Sb1,2.2
Nb1S2,6.26
Nb1Ru3,15.0
Nb0.71Sn0.29,18.3
Nb0.75Si0.25,9.0
Nb0.79Si0.21,9.3
Nb1Se2,4.7
Nb1Se2,8.9
Nb3Sn1,17.77
P1,5.8
P3Pd7,0.7
P3Pd7,1.0
P1,5.6
P0.95Zr1,4.6
P1Zr3,4.5
Pd2.8S1,1.63
Pt1V3,2.53
Ru0.465V0.535,5.8
Sb1,3.55
Ru0.46V0.54,5.05
Se2Ta1,0.16
Se2Ta1,0.13
Se1,9.65
Si1,7.1
Si0.25V0.75,16.7
Sn0.1Tl0.9,3.5
Sn0.65Tl0.35,7.1
Sn1,5.3
Sn1,5.2
Sn1,3.722
Te1,4.28
Te1,3.9
Tc1,8.0
Ta0.15Zr0.85,4.3
Sr1,3.6
Th1,1.35
Te1,3.3
N1Ti1,4.86
C2Y1,3.88
B1Zr1,2.8
La1Si2,2.5
N0.34Re1,4.0
N1Nb1,15.6
C1Mo1,7.7
C1Ta1,3.3
C1Nb1,6.0
B1Ta2,3.12
B1Re2,2.8
B1Mo1,0.5
Si1Ta1,4.28
Ge0.7Mo1,1.2
Si2W3,2.84
Mo1Si0.7,1.34
C1Ru1,2.0
C1Fe3,1.3
Co0.44Mo0.56,13.0
C1Mo1,13.0
Ge2Rh5,2.12
Nb1S2,6.1
La3S4,8.25
Nb1Se2,6.2
La3Se4,8.6
P4Ph5,1.22
Pd2Se1,2.2
Pd6Se1,0.66
Rh1Se1.75,6.0
La3Te4,3.75
La3Te4,2.45
Te1Y1,1.02
Pd1Se1Te1,1.2
Nb1Se0.25Te0.75,4.4
Pd1Te1.08,1.88
Pd1Te1.06,2.11
Pd1Te1.04,2.11
Pd1Te1.02,2.56
Pd1Te1,2.3
Pd1.1Te1,4.07
Pd1Te2.3,1.85
Pd1Te2.1,1.89
Pd1Te1,1.53
As3Pd5,24.761
As1Ni0.25Pd0.75,1.6
As1Ni0.12Pd0.88,1.39
As1Ni0.25Pd0.75,1.34
Cu1Se1Te,1.6
Sn1Te1,0.012
Ge1Te1,0.21
Ge0.976Te1,0.1
Ge1Te1,0.172
In4Sb1Te3,1.4
Nb1O1,1.25
Mo3O5,7.2
Ca0.31Sr0.7Ti1O3,0.1
Ba0.1Sr0.9Ti1O3,0.1
Sr1Ti1O3,0.38
Sr1Ti1O3,0.2
Tl0.3W1O3,2.0
Zr3V3O1,7.5
Zr0.61Rh0.285O0.105,11.8
Ti0.576Rh0.287O0.14,3.37
Ti1Re1O1,5.74
Pd0.285Zr0.61O0.105,2.09
Tc0.6W0.4,7.9
Mo0.5Re0.5,4.7
Ir0.37Nb0.63,2.4
Ir2Nb3,9.8
Al0.25Nb0.75,7.0
Ba0.13W1P3,1.9
Nb3Rh2,4.04
Ru0.5W0.5,5.12
Re0.6W0.4,4.9
Re0.7W0.3,4.9
Re0.52W0.48,5.2
Re3V1,6.26
Fe3Re2,6.55
Nb0.6Os0.4,1.78
Cr0.5Ru0.5,1.3
Cr0.6Ru0.4,2.1
Rh2Ta3,2.35
Cr0.4Re0.6,2.15
Nb0.5Re0.5,2.0
Nb0.4Re0.6,2.5
Nb1Re3,5.27
Nb0.625Pt0.375,3.73
Nb0.62Pt0.38,0.41
Ir0.35Ta0.65,1.2
Re0.6Ta0.4,1.4
Pt0.3Ta0.7,1.0
Ce1Ru2,4.9
Ca1Ir2,4.0
V2Zr1,8.8
Pt2Y1,4.1
Y1Ir1Os1,2.6
Zr1Ni1.5V0.5,0.43
Pt2Sr1,0.7
Ir2Sc1,1.03
Y1Os1Re1,2.0
Y1Ir1.5Os0.5,2.4
Re2Sc1,4.2
V0.45Nb0.5Zr1,4.3
Hf1Re2,4.8
Re2Zr1,6.8
Ru2Sc1.2,1.67
Re2Y1,1.83
Ru2Zr1,1.84
Nb1Tc3,10.5
Hf1Mo2,0.05
Nb0.14Re0.86,8.5
Nb0.2Rr0.8,9.1
Nb0.26Re0.74,7.2
Nb0.32Re0.68,4.5
Nb0.18Re0.82,9.7
Mo1Re4,7.85
Nb1Os1,2.86
Re24Zr5,4.75
Hf5Re24,4.3
Re0.83Ti0.17,5.1
Re0.64Ta0.36,1.46
Re3Ta1,4.75
Re3Ta1,6.78
Re24Sc5,2.2
Bi0.1Pt1Sb0.9,1.21
Bi1Rh1,2.02
Bi1Pt1,1.21
Bi2Pd3,3.7
Pb1Sb1,1.5
Au1Th2,3.08
Cu1Th2,3.49
Au1Pb2,4.42
Co1Zr2,6.3
Al2Cu1,1.02
Ag1Th2,2.26
Ag1In2,2.3
Pb2Pd1,2.95
Bi2Pb1,4.25
Ir1.15Nb0.85,4.75
Nb3Sn2,16.6
Au1Zn3,1.28
Nb0.75Rh1.25,2.7
Bi1Pd1,3.7
Si1Th1,2.41
Pb4Pt1,2.8
Nb0.86Rh1.04,3.76
Ag3.3Al1,0.34
Ir1Zn2,0.78
Bi2Pd1,1.7
Nb0.85Rh1.15,3.0
Nb0.9Rh1.1,3.07
Al3Tl1,0.75
Pt1Sn4,2.38
In1Mg2,3.2
Bi1In5,4.1
Bi1In2,5.1
Bi1Ru1,4.12
Hg1Sn6,5.1
Re1Ti1O5,5.71
Bi3Fe1,1.0
Bi1Mg1,0.7
Bi4Mg1,1.0
Re1Y1Os1,2.0
Bi2Ir1,2.2
Ag1Bi1,2.78
V2.7Nb0.3Si1,12.8
V2.97Nb0.03Si1,15.8
V2.58Zr0.42Si1,8.8
V2.7Zr0.3Si1,13.2
V2.7Ti0.3Si1,10.9
V2.88Ce0.12Si1,15.32
V2.94La0.06Si1,15.92
V2.994La0.006Si1,16.48
V2.7Mn0.3Si1,11.9
V2.79Mn0.21Si1,15.5
V2.97Mn0.03Si1,16.25
V2.4Mo0.6Si1,4.54
V2.52Mo0.48Si1,5.1
V2.79Mo0.21Si1,5.59
V2.91Mo0.09Si1,10.4
V2.964Mo0.036Si1,14.0
V2.97Mo0.03Si1,16.0
V2.7Cr0.3Si1,11.3
V3Si0.76Be0.24,15.6
V3Si0.99Be0.01,16.6
V3Si0.9Ge0.1,14.0
V3Si0.1Ga0.9,10.6
V3Si0.25Ga0.75,8.1
V2.67Pd0.33Si1,7.5
V2.979Co0.021Si1,16.4
V2.7Ru0.3Si1,2.9
V2.94Fe0.06Si1,13.4
V2.808Re0.192Si1,4.7
V2.49Mn0.42Si1,8.1
V3Si0.46Ga0.54,7.4
V3Si0.5Ga0.5,8.6
V3Si0.52Ga0.48,7.8
V3Si0.68Ga0.32,9.4
V3Si0.72Ga0.28,10.5
V3Si0.79Ga0.21,10.7
V3Si0.87Ga0.13,13.3
V3Si0.6Al0.4,10.1
V3Si0.76Al0.24,11.2
V3Si0.8Al0.2,14.0
V3Si0.98Al0.02,16.12
V3Si0.9Al0.1,14.0
V2.754Ti0.246Ga1,13.4
V2.79Ce0.21Ga1,7.5
V2.778La0.222Ga1,7.8
V2.67Ir0.33Jr1,11.39
V3Si0.986Sb0.014,10.5
V3Si0.2Sn0.8,6.4
V3Si0.4Sn0.6,9.8
V3Si0.6Sn0.4,9.7
V3Si0.8Sn0.2,12.85
V3Si0.2Ge0.8,6.1
V3Si0.4Ge0.6,7.2
V3Si0.6Ge0.4,8.7
V2.793Ni0.207Ga1,11.9
V2.781Co0.219Ga1,8.4
V2.865Fe0.135Ga1,10.1
V2.928Re0.072Ga1,10.8
V2.898Mn0.102Ga1,9.0
V2.883W0.117Ga1,11.5
V2.799Mo0.201Ga1,11.7
V2.799Cr0.201Ga1,12.6
V2.802Ta0.198Ga1,12.3
V2.814Nb0.186Ga1,13.5
V2.739Hf0.261Ga1,6.4
V2.742Zr0.258Ga1,9.9
V0.5Nb2.5Sn1,14.2
V1Nb2Sn1,9.8
V1.5Nb1.5Sb1,7.4
V2Nb1Sn1,5.5
V3Ga0.975Bi0.025,14.7
V3Ga0.793Sb0.207,6.9
V0.003Ga0.974Pb0.026,13.2
V3Ga0.78Sn0.22,6.9
V3Ga0.957Ge0.043,13.1
V3Ga0.937In0.063,11.5
V3Ga0.994Cd0.006,11.2
V3Ga0.999Zn0.001,10.2
Nb3Sn0.8Ga0.2,17.8
Nb3Sn0.9Ga0.1,18.1
Nb2.85Mo0.15Al1,13.4
Nb1.71V1.29Au1,1.6
Nb2.01V0.99Au1,2.9
Nb2.25V0.75Au1,3.0
Nb2.49V0.51Au1,4.6
Nb2.55V0.45Au1,5.1
Nb2.9V0.3Au1,6.5
Nb2.85V0.15Au1,8.4
V1Ta2Sn1,3.7
V2Ta1Sn1,2.8
Nb3Rh0.02Au0.98,11.9
Nb3Rh0.05Au0.95,11.0
Nb3Rh0.1Au0.9,10.8
Nb3Rh0.3Au0.7,9.5
Nb3Rh0.5Au0.5,6.6
Nb3Rh0.7Au0.3,4.6
Nb3Sn0.56Ge0.44,6.8
Nb3Sn0.73Ge0.27,8.2
Nb3Sn0.81Ge0.19,14.3
Nb3Sn0.2Ga0.8,13.1
Nb3Sn0.4Ga0.6,14.6
Nb3Sn0.6Ga0.4,16.0
Nb3Sn0.98Al0.02,17.9
Nb1Ta2Sn1,10.8
Nb2Ta1Sn1,16.4
Nb2.5Ta0.5Sn1,17.6
Nb2.75Ta0.25Sn1,17.8
Nb0.9Mo2.1Al1,2.73
Nb1.2Mo1.8Al1,4.2
Nb1.5Mo1.5Al1,4.9
Nb2.1Mo0.9Al1,8.3
Nb2.7Mo0.3Al1,11.4
Nb3Rh0.95Co0.05,1.96
Nb3Rh0.98Co0.02,2.28
Nb3Sn0.1Al0.9,16.1
Nb3Sn0.2Al0.8,14.6
Nb3Sn0.4Al0.6,13.6
Nb3Sn0.5Al0.5,16.3
Nb3Sn0.6Al0.4,15.1
Nb3Sn0.61Al0.39,14.1
Nb3Sn0.8Al0.2,16.9
Nb3Sn0.81Al0.19,14.6
Nb3Sn0.9Al0.1,18.4
Nb3Sn0.92Al0.08,17.9
Nb3Sn0.94Al0.06,18.0
Nb3Sn0.96Al0.04,18.0
Nb3Al0.81Ge0.19,17.6
Nb3Sn0.3Sb0.7,6.8
Nb3Sn0.35Sb0.65,10.5
Nb3Sn0.4Sb0.6,12.4
Nb3Sn0.6Sb0.4,15.8
Nb3Sn0.8Ge0.2,18.0
Nb3Sn0.39Ge0.61,7.6
Nb3Sn0.5Ge0.5,12.6
Nb3Sn0.5Zr0.5,16.5
Nb3Rh0.9Co0.1,1.9
Nb3Rh0.9Au0.1,2.7
Nb3Rh0.95Au0.05,2.52
Nb3Rh0.98Au0.02,2.53
Nb3In0.5Zr0.5,6.4
Nb3Ge0.5Ga0.5,7.3
Nb3Al0.39Ge0.61,7.3
Nb3Al0.5Ge0.5,12.6
Nb3Al0.55Ge0.45,11.7
Nb3Al0.62Ge0.38,17.2
Nb3Rh0.7Os0.3,1.7
Nb3Rh0.9Os0.1,2.3
Nb3Rh0.95Os0.05,2.39
Nb3Rh0.98Os0.02,2.42
Nb3Rh0.9Pd0.1,2.55
Nb3Rh0.95Pd0.05,2.49
Nb3Rh0.98Pd0.02,2.5
Nb3Rh0.9Ru0.1,2.44
Nb3Rh0.95Ru0.05,2.42
Nb3Rh0.98Ru0.02,2.42
Nb77.3Sn18.1Al2.3Ge2.3,13.0
Nb1Ta1V1Sn1,6.2
Nb2Ta0.5V0.5Sn1,12.2
Nb3Rh0.02Pt0.98,9.6
Nb3Rh0.05Pt0.95,8.9
Nb3Rh0.1Pt0.9,7.9
Nb3Rh0.3Pt0.7,7.4
Nb3Rh0.5Pt0.5,6.25
Nb3Rh0.7Pt0.3,5.1
Nb3Rh0.9Pt0.1,2.8
Nb3Rh0.95Pt0.05,2.53
Nb3Rh0.98Pt0.02,2.52
Nb78.5Sn2.2Al9.6Ge9.6,12.7
Nb79.2Sn5.2Al5.2Ge10.4,10.9
Nb79.1Sn9.4Al2.1Ge9.4,8.2
Nb78.5Sn2.2Al12.8Ge6.5,17.0
Nb77.5Sn5.6Al11.3Ge5.6,15.2
Nb78.1Sn7.3Al7.3Ge7.3,12.5
Nb77.9Sn11.1Al5.5Ge5.5,13.0
Nb78.4Sn12.9Al2.2Ge6.5,13.3
Nb76Sn2.4Al19.2Ge2.4,16.0
Nb76.3Sn7.1Al14.3Ge2.3,13.9
Nb76.3Sn10.5Ge2.3Al10.9,14.4
Nb77Sn13.8Al6.9Ge2.3,13.3
Ag2F1,0.066
Ag7O11N1,1.04
Ag7Bf4O8,0.15
Si21.75V69.43,16.2
Si23.27V75.15,15.94
Si22.5V75,16.4
Si23.8V74.65,16.5
Nb80.7Sn1.9Al1.9Ge15.5,7.8
Nb79.5Sn2.1Al6.1Ge12.3,9.4
Nb79.7Sn6.1Al2Ge12.2,7.15
Ag0.1In0.9Te1,1.2
Al1Au4,0.4
Ag0.03Tl0.97,2.67
Ag7N0.75O10.25F0.25,0.85
Ag1In2,2.4
Ag0.8Ga0.2,6.5
Al0.8Ge0.2Nb3,20.7
Al0.5Ge0.5Nb1,12.6
Al0.131Cr0.088V0.781,1.46
Al2C1Mo3,9.8
Al1,1.17
Al1,1.3
Ag0.2In0.8Te1,0.77
Al2Pt1,0.48
Al1Pb1,1.2
Al2Mg2,0.84
As1Sn1,3.41
As1Rh1.4,0.03
As1Pd5,0.46
As0.5Ni0.06Pd0.44,1.39
As0.5In1Te0.5,0.44
As0.33In1Te0.67,0.85
Au1In1,0.4
Au0.4Ge0.6,0.32
As2Sn3,3.5
Au5Sn1,0.7
Au1Pb3,4.25
Au0.02Nb3Rh0.98,2.53
B6La1,5.7
B1C1Mo2,5.3
B0.03C0.51Mo0.47,12.5
B1C1Mo2,5.4
Au1V3,0.74
B12Zr1,5.82
B0.3Ru0.7,2.58
Bi1Co1,0.42
Bi0.5Cd0.25Pb0.25Sn0.12,8.2
Be1W1,4.1
Be0.957Re0.043,9.62
Be9.8Re0.02,9.5
Ba0.14O3W1,1.25
Bi2Ir1,3.0
Bi2Ir1,1.7
Bi0.34In0.66,4.0
Bi0.15In0.85,5.3
Bi10.1In0.9,5.05
Bi0.5Pb0.25Sn0.26,8.5
Bi0.5Pb0.31Sn0.19,8.5
Bi0.06Pb0.95,7.35
Bi1Nb3,3.05
Bi4Mg1,0.7
Bi1Li1,2.47
Pt1Pd1,3.7
Bi0.4Pd0.6,3.7
Bi1Pd2,4.2
Bi0.26Tl0.74,4.15
Bi3Te1,0.75
C1Hf0.4Nb0.6,5.6
C1Hf0.5Nb0.5,4.8
C1Hf0.6Nb0.4,4.5
C1Hf0.7Nb0.3,6.1
C1Hf0.25Mo0.75,6.6
C1Hf0.3Mo0.7,5.5
C1Hf0.5Mo0.5,3.4
C1Ga1Mo2,3.7
Bi0.3Zn0.7,1.51
C1Mo0.5Ta0.5,7.7
C1Mo0.2Ta0.8,7.5
C0.6Mo4.8Si3,7.6
C0.44Mo0.56,1.3
C1Mo2,12.2
C1Mo1,6.5
C0.4Mo0.6,9.0
C8K1,0.39
C1K1,0.55
C1Hf0.9Ta0.1,5.0
C1Hf0.8Nb0.8,7.8
C1Hf0.25Nb0.75,7.0
C1Nb0.1Zr0.9,4.2
C1Nb0.6W0.4,12.5
C0.7Nb0.3,6.0
C1Nb1,14.0
C0.984Nb1,9.8
C1Nb1,7.5
C0.1N0.9Nb1,8.5
C1Mo0.8Ta0.2,8.7
C1Mo0.75Ta0.25,8.5
C1W1,1.0
C1Ti0.5W0.5,6.7
C1Ta0.2Zr0.8,4.6
C0.848Ta1,2.04
C0.987Ta1,9.7
C1Ta1,11.0
C1Re0.06W1,5.0
C1Re0.01W1,1.3
Cd0.18Tl0.82,2.54
Cd1Sn1,3.65
Cd0.97Pd0.03,4.2
Cd1Hg1,1.77
Cd0.3Hg0.7,1.7
Ca1Rh2,6.4
Ca1Pb1,7.0
Ca0.1O3W1,1.4
Ca1Ir2,6.15
Co0.5Rh0.5Si2,2.5
Co0.02Nb3Rh0.98,2.28
Co1Lu3,0.35
Ce1Ru2,6.0
Ce0.005La0.995,4.6
Ce1Co2,0.84
Cr0.6Ir0.4,0.4
Co1Si2,1.4
Co0.3Sc0.7,0.35
Cr0.1Ru0.9,0.34
Cr2Ru1,2.02
Cr3Ru1,3.3
Cr0.8Rh0.2,0.5
Cr3Ir1,0.45
Cr0.72Ir0.28,0.83
Cr0.7Ir0.3,0.76
Cr0.65Ir0.35,0.59
D0.13Nb1,9.12
Cu1Se1Te1,1.6
Cu0.15In0.85,3.75
Ga0.7Pt0.3,2.9
Ga0.5Ge0.5Nb3,7.3
Ge0.29Nb0.71,6.0
Ge1Nb3,6.0
Ge1Mo3,1.43
Ga3Zr1,1.38
Ga1V4.5,9.15
Ga1V2.1,6.3
Ga1Sb1,4.24
H0.12Ta0.88,2.81
H0.05Nb0.95,7.83
H0.1Nb0.9,7.38
H00.33Nb0.67,7.28
Ge0.5Nb3Sn0.5,11.3
Hf1V2,8.9
Hf0.99Rh0.01,0.85
Hf0.14Re0.86,5.8
Hf0.76Nb0.25,4.2
Hf1N0.989,6.6
H0.04Ta0.96,3.62
H0.08Ta0.92,3.26
In0.11O3W1,1.25
In1Nb3,4.0
In1La3,9.75
Hg5Tl2,3.86
Hg4K1,3.27
In0.78Tl0.22,3.18
In0.62Tl0.38,2.76
In0.8Tl0.2,3.223
In1Te1.002,3.5
In0.82Te1,1.02
In3Sn1,5.5
In1Sb1,4.8
In1Pb1,0.7
In1Pb1,6.65
In0.98Pb0.02,3.45
In0.95Pb0.05,3.6
Ir0.4Nb0.6,9.8
Ir1Nb3,1.9
Ir1Mo3,6.8
In0.69Tl0.31,2.98
Ir1Sn2,0.65
Ir2Sc1,2.07
Ir0.5Os0.5,2.4
Ir0.265O0.035Ti0.65,2.3
Ir0.287O0.14Ti0.578,5.5
Ir1Nb1,7.9
Ir0.37Nb0.63,2.32
Ir0.28W0.72,4.49
Ir1V2,1.39
Ir1Ti3,5.4
K0.4O3W1,1.5
K0.27O3W1,0.5
Ir2Y1,1.09
Ir0.69Y0.31,1.98
La3Sc4,8.6
La3S4,6.5
La0.28Pt0.72,0.54
M0.62Os0.38,5.65
Mo3Os1,7.2
Mo0.2Ru0.8,1.66
Mo1Ru1,9.5
Mo0.6Re0.395,10.6
Mo0.42Re0.58,6.35
Mo3Re1,0.01
Mo0.5Pb0.5,3.52
N0.824Nb1,14.4
N0.988Nb1,14.9
N1Nb1,6.0
N1Nb1,10.0
Mo2Zr1,4.27
Mo0.025Ti0.975,1.8
Mo0.04Ti0.96,2.0
Mo0.913Ti0.087,2.95
Mo0.16Ti0.84,4.18
Mo3Si1.3,1.3
Na0.28Pb0.72,7.2
Na0.28O3W1,0.56
N0.906Zr1,3.0
N1Zr1,9.8
N0.82V1,2.9
N0.6Ti1,1.17
N1Ta1,12.0
N0.93Nb0.85Zr0.15,13.8
N0.7Nb1,11.3
Nb0.38Re0.62,2.43
Nb3Pt0.02Rh0.98,2.52
Nb5Pt3,3.73
Nb0.62Pt0.38,4.21
Nb3Pd0.02Rh0.98,2.49
Nb3Os0.02Rh0.98,2.42
Nb0.6Os0.4,1.89
Nb1Sn2,2.6
Nb0.8Sn0.2,18.18
Nb3Sn1,18.05
Nb1Se2,2.2
Nb1Se2,5.15
Nb1S2,5.0
Nb0.88V0.12,5.7
Nb2.5Sn1V0.5,14.2
Nb2Sn1V1,9.8
Nb1Sn1V2,5.5
Nb2Sn1Ta0.5V0.5,12.2
Nb1Sn1Ta1V1,6.2
Nb2.75Sn1Ta0.25,17.8
Nb2.5Sn1Ta0.5,17.6
Nb2Sn1Ta1,16.4
Nb1Sn1Ta2,10.8
O3Tl0.03W1,2.0
O3Sr0.08W1,2.0
O1Ti1,0.58
O3Sr1Ti1,0.47
O3Sr1Ti1,0.05
O3Sr1Ti1,0.12
O3Rb0.27W1,1.98
Ni1Zr2,1.52
Ni0.3Th0.7,1.98
Nb0.66Zr0.33,10.8
Nb0.75Zr0.25,10.8
P1Pd3,0.35
Os1W3,3.0
Pb1Tl0.17,6.73
Pb1Tl0.27,6.43
Pb1Te1,5.24
Pb1Te1,5.19
P1Rh2,1.3
P1Rh1,1.22
Pb0.9Pt0.1Te2,1.65
Pb1Tl2,3.75
Pb1Tl0.04,7.06
Pb1Tl0.075,6.98
Pb1Tl0.12,6.88
Pd2.8Se1,2.3
Pt2Y8,0.9
Pt1V3.5,1.26
Pt1V3,2.87
Pt1V2.5,1.36
Rh0.24Sc0.76,0.88
Re0.5W0.5,5.12
Re0.6W00.4,6.0
Re24Ti6,6.6
Rh0.005Zr1,5.8
Rh1Zr2,10.8
Rh1V3,0.38
Rh0.02U0.98,0.98
Sb1Sn1,1.3
Ru0.1Ti0.9,3.5
Ru0.05Ti0.95,2.5
Rh0.1Zr0.9,9.0
Si0.9V3Ge0.1,14.0
Si1V2.7Cr0.3,11.3
Si10.9V3C0.1,16.4
Si10.9V3B0.1,15.8
Si10.9V3Al0.1,14.05
Si1V3,17.1
Si2Th1,2.4
Si2Th1,3.2
Sb0.01V0.99,3.76
Sb2Tl7,5.2
Sb1Ti3,5.8
Sn1Ta2V1,3.7
Sn1Ta1V2,2.8
Sn0.174Ta0.826,6.5
Si1V2.7Zr0.3,13.2
Si1V2.7Ti0.3,10.9
Si1V2.7Ru0.3,2.9
Si1V2.7Nb0.3,12.8
Mo0.3Si1,11.7
Ti0.5Zr0.5,2.0
Tc0.6W0.4,7.88
Tc0.5W0.5,7.52
Tc0.1W0.9,1.25
Ta0.8W0.2,1.2
Ta0.05V0.095,4.3
Ta0.05Ti0.95,2.9
Ta0.025Ti0.975,1.3
Sn0.02V0.98,2.87
Bi0.56Pb0.44,8.8
W2Zr1,2.16
V0.26Zr0.74,5.9
Ga1V1.95,5.3
C1Ta1,9.0
C1Nb0.4Ta0.6,0.01
C1Nb1,8.0
C0.44M0.56,12.5
In0.94Pb0.06,3.9
In0.96Pb0.04,3.68
Hg0.15Pb0.85,6.75
Mo0.913Ti0.037,2.95
Mo0.5Re0.395,10.6
Nb1C0.9N0.1,16.97
Nb1C0.3N0.7,17.8
Nb1C0.28N0.78,17.9
Si22.5V75,15.8
N1Nb1,16.1
N12.8Nb1,16.1
Mo0.1U0.9,1.85
Nb25Ti70Zr5,7.5
Nb25Ti74Zr1,7.4
Nb25Ti75,7.2
Nb0.97Cr0.03N1,1.2
Nb0.99Cr0.01N1,1.2
Hf1Ti1C1,1.38
Hf1Zr1C1,1.68
Ti0.5W0.5C1,6.7
Hf1Nb1C1,7.5
Hf1Ta1C1,7.9
Nb0.8W0.2C1,12.7
Mo0.95Hf0.05C0.75,14.2
Nb50Zr45Hf5,10.0
Nb50Ti25Zr25,9.7
Nb50Ti10Zr40,9.8
Nb50Ti5Zr45,10.2
Nb50Zr50,10.2
Nb25Zr75,8.3
Nb25Ti10Zr65,7.5
Nb25Ti20Zr55,7.5
Nb25Ti30Zr45,7.7
Nb25Ti40Zr35,7.7
Nb25Ti50Zr25,7.2
Nb25Ti65Zr10,7.7
H0.827Pd1,1.449
H0.886Pd1,3.478
Nb5V50Ti45,7.4
Nb1V50Ti49,7.5
Ti50V50,7.8
Nb49.8Zr24.45Mo25.75,5.3
Nb50.2Zr39.4Mo10.4,8.8
Nb50.35Zr44.45Mo5.2,9.9
Nb50.9Zr48.05Mo1.05,9.8
Nb40.6Zr19.9Ta39.5,9.9
Nb46Zr36.1Ta17.9,10.3
Nb48.15Zr42.5Ta9.35,10.4
Nb50Zr25Hf25,10.1
Nb50Zr40Hf10,10.1
Nb20Ti75Ta5,7.1
Nb24Ti75Ta1,7.4
Nb25Ti50Ta25,8.6
Nb25Ti65Ta10,8.4
Nb25Ti70Ta5,7.85
Nb25Ti74Ta1,7.55
Nb25V25Ti50,7.3
Nb25V10Ti65,8.0
Nb25V5Ti70,7.7
Nb10V50Ti40,7.1
V50Ti49.5Ta0.5,4.505
Ti50V50,4.5
V50Ti40Zr10,5.5
V50Ti45Zr5,7.0
V50Ti49Zr1,7.7
Nb25Ti50Mo25,4.3
Nb25Ti65Mo10,6.8
Nb25Ti70Mo5,7.4
Nb25Ti74Mo1,7.3
Ta25Ti75,6.0
Nb15Ti75Ta10,6.7
Yb1Pd2Sn1,1.82
Tm1Pd2Sn1,1.92
Y1Pd2Pb1,4.13
Y1Pd2Sn1,5.02
Sc1Pd2Sn1,2.29
V50Ti40Mo10,6.2
V50Ti45Mo5,6.9
V50Ti49Mo1,6.9
V50Ti40Ta10,4.6
V50Ti45Ta5,4.55
V50Ti49Ta1,4.51
H0.983Pd1,7.355
H0.963Pd1,6.377
H0.938Pd1,5.523
D0.952Pd1,7.536
D0.85Pd1,3.558
D0.77Pd1,1.449