composition,critical_temperature_tc
Pd1T0.81,4.087
Pd1T0.786,2.493
Pd1T0.734,1.449
Lu1Pd2Sn1,3.02
Cu1.3Mo6S8,10.3
Cu2Mo6S8,10.8
As1Ga1,10.0
Cu3Mo6S8,5.5
Sn1Mo6S8,10.5
Mo6Se8,6.3
Sn1Fe0.05Mo6S8,7.05
Pb1Mo6S8,12.7
Sn0.5Eu0.5Mo6S8,10.2
Cu1.6Mo6S8,11.3
Cu2.6Mo6S8,10.5
Cu2.6Mo6S8,8.0
Cu3.2Mo6S8,8.5
Cu3.2Mo6S8,7.6
Y1Ni2B2C1,15.5
La1Pt2B2C1,10.5
La1Pt2.2B2C1,6.5
Y1Pt2B2C1,10.5
La3Ni2B2N3,12.3
Th1Ni2B2C1,6.5
Th1Pt2B2C1,6.7
Th1Ni2B2C1,8.4
La0.5Th0.5Ni2B2C1,3.9
Sc0.5Lu0.5Ni2B2C1,15.6
La0.5Lu0.5Ni2B2C1,14.8
Lu1Ni2B2C1,16.6
Tm1Ni2B2C1,11.1
Er1Ni2B2C1,10.0
Ho1Ni2B2C1,5.8
Y1Ni2B2C1,15.3
Er1Ni2B2C1,10.3
Y1Ni2B2C1,15.6
Y1Pd5B3C0.3,23.0
Tm1Ni2B2C1,10.2
Y1Ni2B2C1,14.5
Y1Ni1.94Co0.06B2C1,11.5
Y1Ni1.9Co0.1B2C1,9.8
Y1Ni1.86Co0.14B2C1,7.76
Y1Ni1.8Co0.2B2C1,6.7
Y1Ni1.98Ru0.02B2C1,12.8
Y1Ni1.94Ru0.06B2C1,8.7
Y1Ni1.9Ru0.1B2C1,7.0
Y1Ni1.98Fe0.02B2C1,13.4
Y1Ni1.94Fe0.06B2C1,10.2
Y1Ni1.9Fe0.1B2C1,8.2
Y1Ni1.86Fe0.14B2C1,6.2
Y1Ni2B2C1,15.0
Y1Pd4.2B3C0.3,24.0
Y1Ni2Pd,16.3
Y1Ni1.8Pd0.2B2C1,14.0
Y1Ni1.5Pd0.5B2C1,12.1
Y1Ni1.3Pd0.7B2C1,12.1
Y1Ni1Pd1B2C1,11.8
Y1Ni0.8Pd1.2B2C1,11.8
Y1Pd3B3C0.3,22.0
La1Pt1.5Au0.6B2C1,10.2
Pr1Pt1.5Au0.6B2C1,6.0
Sc3.5Dy1.5Ir4Si10,5.0
Cu0.9Co1.9S4,1.6
Cu1.2Co1.8S4,2.3
Cu1.5Co1.5S4,3.3
Tm1Rh1.3Sn4,2.07
Pt3V1,0.508
Fe3Th7,2.09
Th7Fe1.86Co1.14,1.07
Th7Fe0.72Co2.28,2.27
Co3Th7,1.8
Th7Fe2.43Ni0.57,1.05
Th1,1.36
Y0.8Ca0.2C2,2.82
Y0.7Ca0.3C2,2.4
Y2C2Br2,5.04
La1Os1Ru3P12,7.0
La1Os2Ru2P12,7.0
Zr1Ru1P1,13.0
C2Y1,4.02
C2Y1,3.98
C2Y1,3.95
C1.95Y1,3.86
Y0.91Th0.09C2,3.7
Y0.81Th0.19C2,3.52
Y0.7Th0.3C2,3.43
Y0.9Ca0.1C2,3.15
La1Ru4As12,10.3
La1Ru4Sb12,2.8
Pr1Ru4As12,2.4
C1.35La1,11.0
La1.9Th0.1C1.35,12.7
C1.35Y1,10.0
Y0.7Th0.3C1.35,17.0
Hf1N1Cl1,25.5
Zr1N1Cl1,13.0
Na2.9Ba4.5Si46,3.5
Y1Pd4B1C0.2,21.0
Lu1Pd4B1C0.2,10.0
Na1.5Ba6Si46,2.6
Na0.3Ba6.2Si46,4.0
Na0.2Ba6Si46,4.8
Ba1Si2,5.3
Y1Ni2B2C1,13.8
Ho1Ni2B2C1,8.5
Ho0.9Dy0.1Ni2B2C1,8.0
Ho0.85Dy0.15Ni2B2C1,7.9
Ho1.8Dy0.2Ni2B2C1,6.6
Ho0.7Dy0.3Ni2B2C1,5.8
Ho0.65Dy0.35Ni2B2C1,5.9
Ho0.6Dy0.4Ni2B2C1,6.0
Ho0.5Dy0.5Ni2B2C1,5.9
Ho0.4Dy0.6Ni2B2C1,5.85
Ho0.2Dy0.8Ni2B2C1,6.23
Dy1Ni2B2C1,6.23
Lu1Ni2B2C1,15.9
Lu0.8Dy0.2Ni2B2C1,11.8
Lu0.6Dy0.4Ni2B2C1,7.5
Lu0.4Dy0.6Ni2B2C1,4.3
Lu0.3Dy0.7Ni2B2C1,2.0
Lu0.1Dy0.9Ni2B2C1,2.5
Lu0.05Dy0.95Ni2B2C1,4.3
Dy1Ni2B2C1,6.2
Eu1Nd2S5,3.0
Ba1Ta2S5,3.14
Ba1Ta2S5,2.88
Be13U1,0.9
U1Pd2Al3,1.89
U1Pd2Al2.97Ga0.03,1.64
U1Pd2Al2.94Ga0.06,1.51
U1Pd2Al2.85Ga0.15,1.15
U1Pd2Al2.7Ga0.3,0.52
U1Pd2Al2.55Ga0.45,0.76
U1Pd2Al2.4Ga0.6,0.33
Dy1Ni2B2C1,6.0
Ho1Ni2B2C1,8.6
Er1Ni2B2C1,10.8
U1Ru2Si2,1.53
Ho1Ni2B2C1,8.0
Er1Ni2B2C1,11.0
Tm1Ni2B2C1,11.0
Nd1.72Ta3.28S2,4.3
Y1Ni1.86Co0.14B2C1,8.5
Y1Ni1.9Co0.1B2C1,9.5
Y1Ni1.94Co0.06B2C1,12.1
Y1Ni1.985Cu0.015B2C1,14.3
Y1Ni1.95Cu0.05B2C1,14.7
Y1Ni1.9Cu0.1B2C1,13.7
Y1Ni1.85Cu0.15B2C1,13.0
Y1Ni1.8Cu0.2B2C1,11.5
Y1Ni1.7Cu0.3B2C1,10.8
Y1Ni1.6Cu0.4B2C1,10.6
Y1Ni1.4Cu0.6B2C1,10.5
Y1Cu2B2C1,10.0
Y0.9Tb0.1Ni2B2C1,12.7
Y0.8Tb0.2Ni2B2C1,11.0
Y0.7Tb0.3Ni2B2C1,8.1
Y0.65Tb0.35Ni2B2C1,4.6
Y0.6Tb0.4Ni2B2C1,2.0
La0.84Mo6Se8,9.4
La0.88Mo6Se8,10.25
La0.94Mo6Se8,11.0
Mo3Se4,6.6
Sn0.875Mo6S8,14.048
W0.25Sn0.875Mo6S8,13.635
Cu2Mo6S8,10.43
Sr1Ta2S5,2.75
La1Pt1.5Au0.6B2.4C1.2,11.0
Pr1Pt1.5Au0.6B2.4C1.2,6.2
Y1Pt1.5Au0.6B2.4C1.2,5.8
Y1Ni2B2C1,15.4
Lu1Ni2B2C1,15.7
Y1Ni2B2C1,15.48
Y1Pd5B3C0.3,23.32
Dy1Ni2B2C1,3.8
Y1Ni1.9Cu0.1B2C1,13.8
Y1Ni1.8Cu0.2B2C1,11.6
Y1Ni1.7Cu0.3B2C1,10.9
Y1Ni1.4Cu0.6B2C1,10.4
Y1Ni1Cu1B2C1,10.1
Y1Ni1.98Co0.02B2C1,14.3
Y1Ni1.8Co0.2B2C1,6.8
Pt3U1,0.553
Y1Ni2B2C1,15.45
Er1Ni2B2C1,10.5
Lu1Ni2B2C1,16.0
Ho0.25Y0.75Ni2B2C1,13.8
Ho0.5Y0.5Ni2B2C1,11.6
Ho0.75Y0.25Ni2B2C1,10.2
Ho0.85Y0.15Ni2B2C1,9.3
Ho1Ni2B2C1,7.6
Ho1Ni2B2C1,7.5
Er1Ni2B2C1,10.4
Tm1Ni2B2C1,10.9
Dy1Ni2B2C1,0.75
Y1Ni2B2C1,15.76
Ho1Ni2B2C1,8.67
Er1Ni2B2C1,10.96
Tm1Ni2B2C1,10.88
C60Rb3,30.5
La1Ni1C2,3.0
Li2Na1N1C60,12.0
Na4H4C60,15.0
Ca1,15.0
Lu1Ni1B1C1,2.96
Lu1Ni0.9V0.1B1C1,2.94
Lu1Ni0.8V0.2B1C1,2.6
Lu1Ni0.9Cu0.1B1C1,3.3
Lu1Ni0.8Cu0.2B1C1,3.38
I2,1.2
Lu1Ni1.97Co0.06B2C1,14.0
Lu1Ni0.91Co0.18B2C1,8.8
Lu1Ni1.85Co0.3B2C1,4.8
Ho1Ni1.995Co0.01B2C1,6.72
Ho1Ni1.95Co0.03B2C1,4.51
Er1Ni2B2C1,10.6
Er1Ni1.98Co0.04B2C1,8.2
Er1Ni1.97Co0.06B2C1,6.6
Er1Ni1.9675Co0.065B2C1,6.2
Er1Ni1.9625Co0.075B2C1,5.1
Lu1Ni1.991Co0.018B2C1,15.6
Lu1Ni1.95Co0.1B2C1,12.3
Lu1Ni1.93Co0.14B2C1,10.5
Lu1Ni1.89Co0.22B2C1,7.5
Lu1Ni1.87Co0.26B2C1,6.0
Lu1Ni1.83Co0.34B2C1,3.8
Lu1Ni1.81Co0.38B2C1,2.9
Lu1Ni1.8Co0.4B2C1,2.6
Tm1Ni1.99Co0.02B2C1,10.3
Tm1Ni1.98Co0.04B2C1,9.2
Tm1Ni1.97Co0.06B2C1,8.7
Tm1Ni1.96Co0.08B2C1,7.7
Tm1Ni1.94Co0.12B2C1,5.9
Tm1Ni1.92Co0.16B2C1,4.4
Tm1Ni1.91Co0.18B2C1,3.2
Tm1Ni1.88Co0.24B2C1,1.6
Er1Ni0.199Co0.02B2C1,9.2
Er1Ni0.973Co0.054B2C1,7.2
Er1Ni1.96Co0.08B2C1,4.2
Er1Ni1.955Co0.09B2C1,2.6
Ho1Ni1.998Co0.004B2C1,7.2
Ho1Ni1.993Co0.014B2C1,5.0
Ho1Ni1.99Co0.02B2C1,4.8
Ho1Ni1.98Co0.04B2C1,3.7
Ho1Ni1.972Co0.056B2C1,2.4
Dy1Ni2B2C1,4.6
Dy1Ni1.995Co0.01B2C1,4.1
Dy1Ni1.99Co0.02B2C1,3.1
Dy1Ni1.985Co0.03B2C1,2.1
Lu1Ni2B2C1,16.1
Cu0.7Zn0.3Ir2S4,2.8
Cu0.5Zn0.5Ir2S4,2.2
Y1Ni2B2C1,14.91
Lu1Ni2B2C1,15.75
Er1Ni2B2C1,9.5
Sc5Co4Si10,4.9
La3Ni2B2N3,13.2
Y1Pd2B2C1,22.6
Tb0.2Er0.8Ni2B2C1,7.1
Tb0.225Er0.775Ni2B2C1,5.9
Tb0.25Er0.75Ni2B2C1,4.9
Dy1Ni2B2C1,6.51
Yb1Pd2Sn1,2.3
Ce1.025Cu2Si2,0.6
Ce1Cu2.05Si2,0.7
Sn19Er4Rh6,1.32
Sn18.59Er4.41Rh6,1.0
Sn18.43Er4.57Rh6,0.97
C60Rb3,30.8
Ho1Ni2B2C1,7.8
Ho1Ni2B2C1,7.1
Sn0.95In0.05Te1,1.2
Sn0.9405Ge0.0095In0.05Te1,1.61
Sn0.9215Ge0.0285In0.05Te1,1.74
Sn0.9025Ge0.0475In0.05Te1,1.72
Sn0.874Ge0.076In0.05Te1,1.64
Sn0.855Ge0.095In0.05Te1,1.48
Sn0.8075Ge0.1425In0.05Te1,1.09
Sn0.76Ge0.19In0.05Te1,0.68
Sn0.84In0.16Te1,2.48
Sn0.798Ge0.042In0.16Te1,2.36
Sn0.756Ge0.084In0.16Te1,2.32
Sn0.714Ge0.126In0.16Te1,2.23
Sn0.672Ge0.168In0.16Te1,1.93
Sn0.63Ge0.21In0.16Te1,1.87
Sn0.588Ge0.252In0.16Te1,1.42
Sn0.504Ge0.336In0.16Te1,0.42
U1Ru2Si2,1.24
U1Ru2Si2,1.3
Cu1.5Rh1.5S4,4.5
La2Rh3Sn5,1.85
Tm2Rh3Sn5,1.8
U1Ni2Al3,1.0
Mo6Se8,6.28
Mo6Se8,6.13
Sc2Fe3Si5,4.52
Y2Fe3Si5,2.4
Lu2Fe3Si5,6.1
Ni3Th7,1.97
Fe3Th7,2.1
La7Pd3,1.48
La7Rh3,2.6
La7Ru3,1.92
Sr1Ta2S5,3.16
Na0.05W1O3,91.0
Tm2Fe3Si5,3.13
Ho0.8La0.2Ni2B2C1,1.3
Ho0.9La0.1Ni2B2C1,2.25
Ho0.93La0.07Ni2B2C1,3.0
Ho0.95La0.05Ni2B2C1,6.62
Ho0.97La0.03Ni2B2C1,7.44
Ho1Ni2B2C1,8.56
La3Ni1,2.4
Al0.24Nb0.76,18.7
Al0.24Nb0.76,16.9
Al0.24Nb0.76,7.1
Al0.24Nb0.76,3.9
Al1Nb3,16.84
Al1Nb3,18.45
Al1Nb3,18.2
Ge1Nb3,5.9
Mo6Se6Br2,6.7
Cu1Mo6Se8,5.9
La1Mo6Se8,11.6
Cd1Mo6Se8,2.4
Sn1Mo6Se8,3.4
Pb1Mo6Se8,4.0
Ag1Mo6S8,7.7
Gd1Mo6S8,1.8
Sn1Mo6S8,11.7
Pb1Mo6S8,13.7
La1Mo6S8,6.8
Mo6S8,1.8
Mo6S6Br2,13.0
Mo6S6I2,13.0
Cu1.8Mo6S8,10.7
Zn1Mo6S8,2.8
Al1Nb3,18.7
Al1Nb3,17.9
Al1Nb3,9.9
Al0.245Nb0.725,18.4
Nb0.747Al0.239Si0.014,18.0
Nb0.758Al0.174Ge0.069,19.7
Nb2.97Zr0.03Al1,17.4
Nb2.91Zr0.09Al1,14.6
Nb3Al0.75Ge0.25,19.8
Nb3Al0.75Ga0.3,19.1
Nb2.9925Zr0.0075Al1,17.6
Nb2.973Zr0.027Al1,16.6
Nb2.927Zr0.073Al1,14.8
Nb2.859Zr0.141Al1,13.6
Nb2.985Hf0.015Al1,18.0
Nb2.919Hf0.081Al1,16.5
Nb2.85Hf0.15Al1,14.4
Nb2.976Ti0.024Al1,17.7
Nb2.9175Ti0.0825Al1,16.0
Nb2.88Ti0.12Al1,15.0
Nb2.778Ti0.222Al1,13.0
Nb2.73Ti0.27Al1,11.5
Nb2.58Ti0.42Al1,9.0
Nb2.97W0.03Al1,18.0
Nb2.94W0.06Al1,17.2
Nb2.895W0.105Al1,16.0
Nb2.85W0.15Al1,15.2
Nb2.85Mo0.15Al1,15.5
Nb2.775Mo0.225Al1,13.8
Nb2.7Mo0.3Al1,12.3
Nb2.94Ta0.06Al1,17.7
Nb2.85Ta0.15Al1,16.8
Nb2.739Ta0.261Al1,15.4
Nb2.64Ta0.36Al1,14.5
Nb2.859V0.141Al1,17.2
Nb2.706V0.294Al1,15.6
Nb2.55V0.45Al1,14.0
Nb3Al0.98Se0.02,18.4
Nb3Al0.967Se0.033,18.1
Nb3Al0.952Se0.048,18.0
Nb3Al0.94Se0.06,17.8
Nb3Al0.924Se0.076,17.6
Nb3Al0.9Se0.1,17.6
Nb3Al0.985Si0.015,18.6
Nb3Al0.975Si0.025,18.5
Nb3Al0.964Si0.036,18.4
Nb3Al0.956Si0.044,18.5
Nb3Al0.945Si0.055,18.4
Nb3Al0.935Si0.065,18.4
Nb3Al0.983Ga0.017,18.8
Nb3Al0.967Ga0.033,19.0
Nb3Al0.95Ga0.05,19.2
Nb3Al0.927Ga0.073,19.2
Nb3Al0.907Ga0.093,19.1
Nb3Al0.991Ge0.009,19.0
Nb3Al0.98Ge0.02,19.3
Nb3Al0.97Ge0.03,19.6
Nb3Al0.96Ge0.04,19.8
Nb3Al0.95Ge0.05,20.0
Nb3Al0.94Ge0.06,20.0
Nb3Al0.93Ge0.07,20.0
Nb3Al0.92Ge0.08,19.9
Nb3Al0.91Ge0.09,19.8
Ga0.32Nb0.68,20.2
Ga0.245Nb0.755,20.2
Ga0.3Nb0.7,16.3
Ga0.19Nb0.81,13.3
Nb3Al0.5Ga0.5,19.0
Nb0.79Al0.164Ga0.057,20.7
Nb3Al0.9B0.1,19.8
Nb3Al0.8B0.2,17.8
Al1Nb3,17.8
Nb3Al0.95Be0.05,19.8
Nb3Al0.9Be0.1,19.8
Nb3Al0.8Be0.2,17.0
Nb3Al0.7Be0.3,14.0
Rh1Zr2,11.2
Zr2Rh1H0.08,11.1
Zr2Rh1H0.1,10.8
Zr2Rh1H0.28,8.8
Zr2Rh1H0.7,6.0
C60Rb3,31.0
Nb0.75Al0.19Ge0.06,20.9
Be13U1,0.941
U0.99Th0.01Be13,0.624
U0.983Th0.017Be13,0.525
U0.9822Th0.0178Be13,0.519
U0.9815Th0.0185Be13,0.519
U0.978Th0.022Be13,0.558
U0.97Th0.03Be13,0.585
U0.962Th0.038Be13,0.532
U0.957Th0.043Be13,0.533
U0.9545Th0.0455Be13,0.46
U0.9535Th0.0465Be13,0.415
U0.948Th0.052Be13,0.38
Pt3U1,0.547
U1Pt2.997Pd0.003,0.447
U1Pt2.994Pd0.006,0.4
Pt3U1,0.57
U1Pt2.991Pd0.009,0.35
U1Pt2.988Pd0.012,0.24
Co1Zr2,5.2
Ni1Zr2,2.0
La1Ni1C2,2.7
La1Ni1Sn1,0.59
La1Pt1Si1,3.9
La0.99Nd0.01Pt1Si1,3.71
La0.98Nd0.02Pt1Si1,3.42
La0.97Nd0.03Pt1Si1,3.27
La0.96Nd0.04Pt1Si1,3.04
La0.95Nd0.05Pt1Si1,2.76
La0.94Nd0.06Pt1Si1,2.56
La0.93Nd0.07Pt1Si1,2.29
La0.92Nd0.08Pt1Si1,2.04
La0.91Nd0.09Pt1Si1,1.73
La0.9Nd0.1Pt1Si1,1.42
La0.9997Ce0.0003Pt1Si1,3.2
La0.9991Ce0.0009Pt1Si1,2.03
La0.9989Ce0.0011Pt1Si1,1.5
C0.78W0.22Si1,2.9
C0.74W0.26Si1,3.3
C0.72W0.28Si1,3.9
Ti1,0.49
Al0.029Ti0.971,0.65
Al0.053Ti0.947,0.7
Al0.102Ti0.898,0.73
Pt1,0.0019
Pt1,0.00104
Pt3U1,0.55
U1Pd2Al3,2.0
U1Ru2Si2,1.2
Y2C2Br2,5.05
C2Y1,3.85
La1Ru4Sb12,3.58
Pr1Ru4Sb12,1.04
Bi3Ni1,4.1
La1Ru3Os1P12,7.0
La1Ru2Os2P12,7.0
Nb0.75Al0.225Ga0.025,19.1
Nb0.75Al0.16Ga0.09,19.45
Nb0.75Al0.175Ga0.075,19.1
Nb0.75Al0.2Ge0.05,16.5
Nb0.75Al0.185Ge0.065,20.26
Nb0.75Al0.1875Ge0.0625,20.0
Nb0.75Al0.02Ge0.05,19.8
Nb0.75Al0.19Ge0.06,20.0
Nb0.75Al0.18Ge0.07,19.8
Nb0.79Al0.16Ge0.05,21.0
Nb0.75Al0.175Ge0.075,17.9
Nb0.75Al0.2Ge0.05,18.6
Nb0.75Al0.2Ge0.05,20.0
Nb0.75Al0.21Ge0.04,20.0
Nb0.75Al0.2Ge0.05,18.5
Nb0.75Al0.2Ge0.05,19.7
Al0.25Nb0.75,18.6
Nb0.75Al0.23Ge0.02,19.2
Nb0.75Al0.21Ge0.04,19.7
Nb0.75Al0.17Ge0.08,19.8
Nb0.75Al0.16Ge0.09,19.7
Nb0.768Al0.146Ge0.086,17.4
Nb0.76Al0.18Ge0.06,17.88
Nb0.75Al0.225Ge0.025,17.9
Nb0.75Al0.2Ge0.05,15.0
Nb0.75Al0.178Ge0.072,20.1
Nb0.73Al0.255Si0.015,18.7
Al0.25Nb0.75,17.1
Nb0.75Al0.225Si0.025,16.4
Nb0.75Al0.2Si0.05,15.4
Nb0.75Al0.15Si0.1,15.4
Nb0.7275Zr0.0225Al0.25,14.6
Nb0.7425Zr0.0075Al0.25,17.4
As1Nb3,6.5
As1Nb3,0.25
As1Nb3,0.31
Au1Nb3,11.1
Au0.2Nb0.8,7.9
Au1Nb3,10.6
Au1Nb3,1.5
Au1Nb3,10.8
Au0.242Nb0.758,10.56
Au0.24Nb0.76,10.56
Au0.2Nb0.8,5.0
Au0.22Nb0.78,7.6
Au0.24Nb0.76,11.0
Au0.25Nb0.75,11.0
Au1Nb3,11.08
Au1Nb3,11.23
Nb0.75Au0.175Pt0.075,12.9
Nb0.75Au0.175Pt0.075,12.8
C0.98Nb1,11.8
C0.93Nb1,6.5
C1Nb1,10.95
C0.9Nb1,5.0
C0.985Nb1,12.0
C1Nb1,10.5
C1Nb1,11.2
C0.96Nb1,9.8
Nb0.71Mo0.29C1,13.45
Ga0.251Nb0.749,19.9
Ga1Nb3,20.1
Ga0.25Nb0.75,20.0
Ge0.02Nb0.98,5.2
Ge0.045Nb0.955,4.15
Ge1Nb3,6.2
Ge1Nb3,15.7
Ge1Nb3,19.4
Ge1Nb3,4.05
Ge1Nb3,16.7
Ge0.18Nb0.82,6.05
Ge1Nb3,21.2
Ge0.18Nb0.82,6.12
Ge1Nb3,6.281
Ge1Nb3,21.8
Ge1Nb3,3.9
Ga0.2Nb0.8,15.3
Nb0.8Ga0.19Ni0.01,14.1
Nb0.8Ga0.18Ni0.02,12.4
Nb0.8Ga0.17Ni0.03,11.8
Nb0.8Ga0.16Ni0.04,10.6
Nb0.8Ga0.15Ni0.05,9.4
Nb0.8Ga0.14Ni0.06,8.7
Nb0.8Ga0.13Ni0.07,8.1
Nb0.8Ga0.195Cr0.005,14.9
Nb0.8Ga0.19Cr0.01,13.6
Nb0.8Ga0.18Cr0.02,13.1
Ho1Ni2B2C1,7.77
Nb0.8Ga0.17Cr0.03,11.5
Nb0.8Ga0.16Cr0.04,10.6
Nb0.8Ga0.15Cr0.05,9.7
Nb0.8Ga0.14Cr0.06,8.6
Ga25Nb75,17.6
Nb75Ga15Al10,18.55
Nb75Ga10Al15,17.2
Nb75Ga7.5Al17.5,18.3
Nb75Ga5Al20,18.25
Al25Nb75,17.5
Nb1C0.5Ni0.5,17.3
C0.99Nb1,10.6
Nb0.8Ta0.2C1,9.9
Nb0.6Ta0.4C1,9.4
Nb0.4Ta0.6C1,9.7
Nb0.25Ta0.75C1,9.8
Nb0.95Mo0.05C1,12.1
Nb0.85Mo0.15C1,12.7
Nb0.51Mo0.49C1,12.22
Nb0.3Mo0.7C1,12.1
Nb0.15Mo0.85C1,11.673
Ga20Nb80,15.4
Nb80Ga19Co1,13.7
Nb80Ga18Co2,12.2
Nb80Ga17Co3,11.0
Nb80Ga16Co4,9.85
Nb80Ga15Co5,9.17
Nb80Ga14Co6,8.1
Nb80Ga13Co7,7.92
Ga20Nb80,18.2
Nb80Ga19.7Fe0.03,17.3
Nb80Ga19.4Fe0.06,16.2
Nb80Ga19Fe1,15.0
Nb80Ga18Fe2,13.1
Nb80Ga17Fe3,11.6
Nb80Ga16Fe4,10.3
Ga20Nb80,15.2
Nb80Ga19Mn1,11.2
Nb80Ga18Mn2,7.79
Nb80Ga17Mn3,7.1
Nb80Ga16Mn4,6.03
Nb80Ga15Mn5,5.0
Ga22Nb78,15.6
Nb78Ga21Mn1,11.2
Nb78Ga20Mn2,8.87
Nb78Ga19Mn3,7.42
Nb78Ga18Mn4,5.97
Nb78Ga16Mn6,5.53
Al1Nb3,17.5
Nb3Al0.9Ge0.1,18.4
Nb3.05Al0.7125Ge0.19,17.9
Nb3.07Al0.5859Ge0.279,17.4
Nb3.2Al0.24Ge0.4,10.2
Al0.72Nb3.28,6.2
Nb2.96Al0.7592Ge0.3224,19.8
Al1Nb3,17.11
Nb3Al0.9Ge0.1,19.7
Nb3Al0.83Ge0.17,19.6
Nb3Al0.76Ge0.24,20.4
Nb3Al0.71Ge0.29,20.7
Nb3Al0.66Ge0.34,20.4
Nb3Al0.5Ge0.5,15.9
Nb3Al0.3Ge0.7,9.1
Nb3Al0.15Ge0.85,7.4
Ge1Nb3,6.4
Nb80Ga17.5Cr2.5,12.5
Pb1Te1Pb1S1,6.03
Pb1Te1Sn1Te1,2.97
Pb1S1Pb1Se1,4.59
Pb1Te1Yb1S1,5.93
Na2Cs1C60,10.5
N4H12Na2Cs1C60,29.6
B2Nb1,0.62
N0.75H2.25Na1K2C60,11.8
N0.85H2.55Na1K2C60,9.0
N0.74H2.22Na1Rb2C60,17.0
N0.86H2.58Na1Rb2C60,12.0
N0.93H2.79Na1Rb2C60,8.5
N0.84H2.52Na1K2C60,13.0
N0.87H2.61Na1K2C60,11.0
N1H3Na1K2C60,8.0
Pb1S1Yb1S1,6.39
Pb1Se1Eu1S1,2.48
Eu0.75Sn0.25Mo6S7.2Se0.8,3.9
B2Ta1,9.5
Mg1B1.8C0.2,41.0
B2Mg1,37.4
Mg0.9Li0.1B2,37.4
Mg0.7Li0.3B2,32.1
B2Mg1,39.2
B2Mg1,40.2
B2Mg1,39.4
B2Mg1,40.25
B2Mg1,40.23
B2Mg1,40.21
Ce1Pd2Si2,0.37
Ce1In3,0.17
Y1Ni2B2C1,16.01
Y0.9Lu0.1Ni2B2C1,15.56
Y0.5Lu0.5Ni2B2C1,14.9
Y0.2Lu0.8Ni2B2C1,14.68
Lu1Ni2B2C1,15.45
La3Ni2B2N3,11.73
Y1Ni2B2C1,15.41
Y0.95Tb0.05Ni2B2C1,14.42
Y0.9Tb0.1Ni2B2C1,13.48
Y0.85Tb0.15Ni2B2C1,12.54
Y0.8Tb0.2Ni2B2C1,11.43
Y0.75Tb0.25Ni2B2C1,10.02
Y0.7Tb0.3Ni2B2C1,9.03
Y0.6Tb0.4Ni2B2C1,5.04
Lu1Ni2B2C1,16.2
Ce1Cu2Si1.8Ge0.2,0.21
Ce1Cu2Si1.9Ge0.1,0.2
Ce1Cu2Si1.7Ge0.3,0.1
C60,52.0
C60,41.5
Nb3S4,4.0
Nb3Se4,2.0
Nb3Te4,1.8
Sn1Ta1S3,2.9
Nb2Se2,6.9
Sn1Nb1Se3,3.02
Nb1S2,6.0
Pb1Nb1S3,2.66
Sn1Nb1S3,2.75
S2Ta1,1.9
Pb1Ta1S3,3.11
Pb1Nb1S3,2.26
Pb1Ta1S3,3.07
Nb1S2,5.99
Cu1Rh2S4,4.7
Cu1Rh2Se4,3.48
Ce1Rh2Si2,0.26
Ce1Rh1In5,2.1
B2Mg1,39.5
Mg1C1.25Ni3,7.3
Mg1C1.5Ni3,8.4
Mg1C1Ni3,7.0
Mg1C1Ni2.97Cu0.03,6.8
Mg1C1Ni2.94Cu0.06,6.3
Mg1C1Ni2.91Cu0.09,6.0
Ce1In3,0.15
Ce1Cu2.53Si2,0.62
Ce1Pd2Si2,0.43
Ce1Ni2Ge2,0.22
Ce1Cu2Ge2,0.64
B1Re3,4.7
B2Re1,6.3
Y1Ni2B2C1,14.25
La1Pt1.5Au0.5B2C1,10.65
B2Mg1,37.5
U1Pt2.997Pd0.003,0.51
U1Pt2.994Pd0.006,0.42
U1Pt2.991Pd0.009,0.34
U0.978Th0.022Be13,0.52
U0.97Th0.03Be13,0.6
U0.962Th0.038Be13,0.56
U0.957Th0.043Be13,0.53
Mg0.9Al0.1B2,36.0
Mg0.8Al0.2B2,36.0
U1,0.78
U1,0.27
Na2Rb0.5Cs0.5C60,8.0
Na2Cs1C60,14.0
K2Rb1C60,21.8
Rb2K1C60,24.4
Rb2K1C60,26.4
C60Rb3,29.4
Rb2Cs1C60,31.3
C60Rb3,29.6
Na2Cs1C60,12.0
Cu1Se2,2.5
Cu1S1.8Se0.2,2.2
Cu1Se2,1.6
Cu0.78Zn0.22Ir2S4,3.3
Cu0.75Zn0.25Ir2S4,3.3
Cu0.7Zn0.3Ir2S4,3.0
Cu0.65Zn0.35Ir2S4,2.8
Cu0.6Zn0.4Ir2S4,2.6
Cu0.55Zn0.45Ir2S4,2.41
Mg0.7Be0.3B2,39.0
Na3N1C60,14.7
C60Cs3,18.0
C60Yb2.75,5.4
Ce1Pd2Si2,0.395
Er0.25Ho0.75Rh4B4,6.44
Er0.16Ho0.84Rh4B4,5.95
Er0.11Ho0.89Rh4B4,5.71
Gd1.2Mo6S8,1.4
Tb1.2Mo6S8,1.8
Dy1.2Mo6S8,2.15
Ho1.2Mo6S8,2.15
Er1.2Mo6S8,2.2
La1Mo6S8,6.95
Pr1Mo6S8,2.55
Nd1Mo6S8,3.5
Sm1.2Mo6S8,2.4
Tb1.2Mo6S8,1.4
Dy1.2Mo6S8,1.7
Ho1.2Mo6S8,1.25
Tm1.2Mo6S8,1.95
Yb1.2Mo6S8,8.6
Lu1.2Mo6S8,1.95
Y1.2Mo6S8,2.1
Yb1Mo6S8,8.45
Y1Pd2Si2,0.47
La1Pd2Si2,0.39
Lu1Pd2Si2,0.67
La1Rh2Si2,0.074
Si,8.2
Ca1Si2,1.51
Ca1Si2,14.0
Sr1Ga0.74Si1.26,3.5
La2Rh3Si5,4.4
Ge2U1,0.72
B2Mg1,37.3
Ce1Rh0.6Ir0.4In5,0.62
Ce1Rh0.5Ir0.5In5,0.84
Ce1Rh0.25Ir0.75In5,0.62
Lu1Ni2B2C1,14.2
Mg1C1Ni3,8.0
B2Mg1,39.6
B2Mg1,38.3
Mg1B1.98C0.02,37.2
Mg1B1.96C0.04,36.1
Mg1B1.94C0.06,34.8
Mg1B1.9C0.1,34.0
Dy1Mo6S8,1.6
B2Mg1,40.0
Zn2Zr1,0.29
Mg0.97Al0.03B2,37.3
Mg0.94Al0.06B2,37.0
Mg0.86Al0.14B2,35.1
Mg0.82Al0.18B2,33.5
Mg0.8Al0.2B2,33.0
Mg0.75Al0.25B2,32.4
Mg0.7Al0.3B2,27.1
Mg0.6Al0.4B2,12.2
Mg0.99Mn0.01B2,36.2
Mg0.98Mn0.02B2,34.5
Mg0.97Mn0.03B2,33.3
Mg0.96Mn0.04B2,32.3
Mg0.95Mn0.05B2,30.0
B2Zr1,5.5
B2Mg1,5.0
B2.75Be1,0.72
B2.75Be1,0.79
Ce1Cu2Si2,0.677
Yb3Rh4Sn13,7.2
Ca3Rh4Sn13,8.2
Yb3Rh4Sn13,7.7
Rb1Cs2C60,33.0
Rb2Cs1C60,31.0
C60Rb3,29.0
K1Rb2C60,27.0
K2Cs1C60,24.0
K2Rb1C60,23.0
C60K3,19.0
Lu1Re1B1C1,6.1
Y1Re1B1C1,4.7
Tb1Re1B1C1,4.0
Gd1Re1B1C1,4.0
Li2Cs1C60,12.0
Na2Rb1C60,2.5
Na2K1C60,2.5
C60K3,19.2
C60K3,19.6
Na2Cs1C60,11.0
C60K3,20.3
C60K3,19.4
C60K3,17.1
Na2Cs1C60,11.6
Na2Cs0.93C60,9.6
Na2Cs0.88C60,8.3
Na2Cs0.75C60,7.0
K2.75Ba0.25C60,15.0
Mg0.97Na0.03B2,38.0
Mg0.93Na0.07B2,38.0
Mg0.85Na0.15B2,38.0
Mg0.8Na0.2B2,38.0
Mg0.93Li0.07B2,37.8
Mg0.85Li0.15B2,37.5
B2Mg1,37.8
Mg0.9Li0.1B2,37.8
Mg0.85Li0.15B2,35.7
Mg0.8Li0.2B2,34.0
Mg0.75Li0.25B2,33.7
Mg0.7Li0.3B2,31.0
Y1Ni2B2C1,16.18
Y1Ni1.98Mn0.02B2C1,15.48
Y1Ni1.9Mn0.1B2C1,12.7
Y1Ni1.8Mn0.2B2C1,8.7
Y1Ni1.7Mn0.3B2C1,5.7
Sc1Ni2B2C1,16.0
B2Mg1,39.1
Sc1Ni2B2C1,16.5
C60Rb3,12.5
C60Cs3,29.5
Na3.5N0.5C60,14.7
Cs3C60,40.0
C60Rb3,27.5
C60Rb3,28.5
Cs1.2Tl2.4C60,29.5
Cs3Hg3.3C60,29.0
Ba4Na2Ge25,0.84
Cu0.8Zn0.2Ir2S4,3.32
Cu0.7Zn0.3Ir2S4,3.05
Cu0.6Zn0.4Ir2S4,2.61
Cu0.5Zn0.5Ir2S4,2.19
Cu0.4Zn0.6Ir2S4,1.73
Cu0.3Zn0.7Ir2S4,1.36
Cu0.2Zn0.8Ir2S4,0.47
Mg0.99Ti0.01B2,38.6
Mg0.95Ti0.05B2,38.5
Mg0.9Ti0.1B2,38.3
Mg0.8Ti0.2B2,37.8
Mg0.6Ti0.4B2,37.5
Mg0.4Ti0.6B2,37.6
Fe1,2.0
C70,7.0
H1Br3C61,115.0
H1Cl3C61,80.0
C60,50.0
Ge2U1,0.258
Ge2U1,0.752
La1Os4As12,3.2
Mo3P1,7.0
Mo8P5,5.8
Mo4P3,3.0
Ti1Rh1Si1,5.1
Zr1Rh1Si1,10.3
Hf1Rh1Si1,2.3
Zr1Ru1Si1,12.0
Zr1Ru1Si1,5.0
Zr1Ru4P2,11.0
Hf1Ru4P2,9.5
Mo1Ni1P1,15.5
Mo1Ru1P1,15.5
Zr1Ru1Si1,12.2
Zr1Ru1P1,4.0
Zr1Rh1Si1,10.5
Ce1Rh0.5Co0.5In5,1.4
Ce1Rh0.3Co0.7In5,1.42
Ce1Rh0.2Co0.8In5,1.57
Ce1Co2,0.82
Ce1Co1.95,0.87
Ce1Co1.85,0.86
Ce1Co2,1.29
Ce1Rh1In5,2.23
Ce1In3,0.2
Dy1Ni2B2C1,4.8
Ho0.9Dy0.1Ni2B2C1,8.15
Ho0.6Dy0.4Ni2B2C1,5.92
Ho1Ni2B2C1,8.4
Mg1Co1Ni2.97Co0.03,6.7
Mg1Co1Ni2.94Co0.06,6.0
Mg1Co1Ni2.91Co0.09,6.0
Gd1.2Mo6Se8,5.6
Tm1Ni2B2C1,10.0
In1V6S8,3.9
Tl1V6S8,4.1
K1V6S8,0.71
Rb1V6S8,0.65
Cs1V6S8,0.32
S8V6,0.76
Tl0.61V6S8,3.5
Tl0.26V6S8,0.74
In0.63V6S8,0.95
Mg1C0.978Ni3,7.3
Mg1C0.965Ni3,6.3
Mg1C0.906Ni3,3.38
In0.71V6S8,5.4
Ce1Rh1In5,2.25
Mg1B1.8C0.2,32.0
Ce1Co1In5,2.17
Li0.9Mo6O17,1.89
Ba1Nb2Se5,2.5
Ag2Pd3S1,1.13
Ag1Sn1Se2,4.71
Ag0.95Sn1.05Se2,5.28
Ag0.92Sn1.08Se2,5.57
Ag0.85Sn1.15Se2,6.23
Ag0.81Sn1.19Se2,6.47
Ag1Sn1Se1.8S0.2,5.79
Ag0.9Sn1.1Se1.8S0.2,6.79
Fe1U6,3.8
Pt3U1,0.52
Mg0.9Zr0.1B2,37.3
Mg0.8Zr0.2B2,37.3
Na0.33V2O5,9.0
U1Rh1Ge1,0.25
C0.9S0.1,35.0
B2Mg1,38.4
Mg0.95Al0.05B2,36.3
Mg0.91Al0.09B2,34.7
Mg0.81Al0.19B2,30.8
Mg0.75Al0.25B2,28.0
Mg0.71Al0.29B2,24.0
Mg0.6Al0.4B2,14.6
Mg0.5Al0.5B2,12.9
Mg0.4Al0.6B2,12.0
Mg0.31Al0.69B2,11.1
Mg0.23Al0.77B2,5.1
La1Pt2.1B2.4C1.2,10.5
Pr1Pt2.1B2.4C1.2,6.0
La0.9Nd0.1Pt2.1B2.4C1.2,8.5
La0.9Pr0.1Pt2.1B2.4C1.2,9.0
Li0.48M0.3Hf1N1Cl1,25.5
Ba8Ga16Ge30,7.5
Ba2Sn3Sb6,3.9
Sr1Sn3Sb4,3.9
Li1Hf1N1Cl1,25.3
Li1Hf0.7Zr0.3N1Cl1,22.6
Li1Hf0.5Zr0.5N1Cl1,21.0
Li1Hf0.2Zr0.8N1Cl1,18.2
Li1Zr1N1Cl1,14.4
Li1Zr1N1Cl0.75Br0.25,14.4
Li1Zr1N1Cl0.525Br0.475,14.3
Li1Zr1N1Cl0.255Br0.745,14.1
Li1Zr1N1Br1,14.1
Li1Hf1N1Cl0.75Br0.25,23.6
Li1Hf1N1Cl0.525Br0.475,22.7
Li1Hf0.45Zr0.55N1Br1,19.0
Li1Hf0.22Zr0.78N1Br1,16.0
Li1Hf1N1Br1,24.1
Li1Hf1N1I1,22.2
Li1Zr1N1I1,14.2
Na0.28Hf1N1Cl1,23.0
Na2Cs1C60,8.5
Y0.8Pr0.2Ni2B2C1,8.74
Y0.95Pr0.05Ni2B2C1,14.0
Y0.85Pr0.15Ni2B2C1,12.0
Y0.75Pr0.25Ni2B2C1,7.7
B2Mg1,39.3
Mg0.99Co0.01B2,35.5
Mg0.9Co0.1B2,34.5
Mg0.75Co0.25B2,34.0
Mg0.5Co0.5B2,31.5
Mg0.99Sn0.01B2,33.5
Mg0.97Fe0.03B2,36.0
Mg0.9Fe0.1B2,34.0
Mg0.75Fe0.25B2,32.0
Rb0.23W1O3,2.6
Rb0.2W1O3,4.16
Ce1Rh2Si2,0.38
Y0.75Dy0.25Ni2B2C1,12.0
Y0.65Dy0.35Ni2B2C1,10.6
Y0.45Dy0.55Ni2B2C1,5.2
Y0.15Dy0.85Ni2B2C1,4.3
Mg1Co1Ni3,7.63
Cs0.005W1O3,5.9
Nb2S1C0.9,5.0
Nb2S1C0.85,4.68
Nb2S1C0.82,4.43
Cu0.67Nb2S2C1,4.85
Nb2S2C1,7.6
Mg1B1.8Be0.2,36.0
Mg1B1.7Be0.3,32.9
Mg1B1.6Be0.4,20.9
Mg1B1.4Be0.6,8.3
Mg0.99Al0.01B2,37.9
La13Ga8Sb21,2.4
Be1,5.8
P4W14O50,0.39
Ce1Rh1In5,2.12
Rb0.23W1O3,3.9
Y1Pt0.5Ge1.5,3.3
Y2Pd1Ge3,3.0
Cd1.3Mo6Se7.5,2.5
Pb1Mo6Se7.55,5.0
K2.9Ba4.9Si46,3.2
Ba1Sn3,4.3
Nb1Se3,2.5
Eu1.2Mo6S8,9.8
Tl2Mo6Se6,6.5
Lu5Ir4Si10,3.8
Sc5Ir4Si10,8.3
Tm5Ir4Si10,1.9
Lu5Rh4Si10,3.3
Lu5Ir4Si10,3.72
Lu5Ir4Si9C1,3.74
Lu4.75Sc0.25Ir4Si10,6.06
Lu4.5Sc0.5Ir4Si10,6.09
Lu4Sc1Ir4Si10,6.54
Lu3.5Sc1.5Ir4Si10,7.64
Lu2.5Sc2.5Ir4Si10,7.9
Lu1Sc4Ir4Si10,7.68
Lu0.25Sc4.75Ir4Si10,7.95
Lu4.5Y0.5Ir4Si10,3.9
Lu4.5Th0.5Ir4Si10,4.88
Lu4.5Tm0.5Ir4Si10,2.84
Y1Ni2B2C1,15.2
Y1Rh4B4,11.3
Nd1Rh4B4,5.3
Sm1Rh4B4,2.7
Er1Rh4B4,8.7
Tm1Rh4B4,9.8
Lu1Rh4B4,11.7
Th1Rh4B4,4.3
Ho1Ir4B4,2.0
Er1Ir4B4,2.1
Tm1Ir4B4,1.6
Sc1Ru4B4,7.2
Y1Ru4B4,1.4
Lu1Ru4B4,2.0
Y1Th3.4Ru0.6B4,9.4
Pr1Th3.4Ru0.6B4,2.3
Eu1Th3.4Ru0.6B4,1.5
Dy1Th3.4Ru0.6B4,4.0
Ho1Th3.4Ru0.6B4,6.3
Er1Th3.4Ru0.6B4,7.9
Tm1Th3.4Ru0.6B4,8.3
Lu1Th3.4Ru0.6B4,9.0
Ho1Rh4B4,1.4
Er1Rh4B4,4.3
Tm1Rh4B4,5.4
Lu1Rh4B4,6.2
Y1Ru1B2,7.8
Lu1Ru1B2,9.99
Sc1Os1B2,1.34
Y1Os1B2,2.22
Lu1Os1B2,2.66
Th1Ru3B2,1.79
Y0.5Th0.5Ru3B2,1.53
Lu1Os3B2,4.62
Lu0.5Th0.5Os3B2,4.14
La1Rh3B2,2.82
Y0.5La0.5Rh3B2,1.88
La1Ir3B2,1.65
Th1Ir3B2,2.09
Ti1Ru1P1,1.33
Zr1Ru1P1,12.34
Hf1Ru1P1,12.7
Zr1Os1P1,7.44
Hf1Os1P1,6.1
Y1Ru3Si2,3.51
La1Ru3Si2,7.6
Th1Ru3Si2,3.98
Ba0.67Pt3B2,5.6
Sr0.67Pt3B2,2.78
Ca0.67Pt3B2,1.57
Ca1Rh1.2Sn4.5,8.7