composition,critical_temperature_tc
Er1Ba2Cu2.76Co0.24O6.75,31.0
Er0.94Ca0.06Ba2Cu2.82Co0.18O6.76,64.0
Er0.88Ca0.12Ba2Cu2.82Co0.18O6.93,77.5
Er0.82Ca0.18Ba2Cu2.82Co0.18O6.71,84.5
Y0.8Pr0.2Ba1Sr1Cu3O7-z,69.1
Y0.6Pr0.4Ba1Sr1Cu3O7-z,52.4
Y0.5Pr0.5Ba1Sr1Cu3O7-z,32.1
Y0.4Pr0.6Ba1Sr1Cu3O7-z,21.4
Y0.35Pr0.65Ba1Sr1Cu3O7-z,17.9
Hg1Ba2Ca2Cu3Oz,132.9
Hg0.9Au0.1Ba2Ca2Cu3Oz,133.0
Hg0.8Au0.2Ba2Ca2Cu3Oz,130.9
Hg0.7Au0.3Ba2Ca2Cu3Oz,121.0
Hg0.6Au0.4Ba2Ca2Cu3Oz,118.0
Hg0.5Au0.5Ba2Ca2Cu3Oz,100.0
Hg0.4Au0.6Ba2Ca2Cu3Oz,100.0
Tm1Ba2Cu4O8,79.6
Er1Ba2Cu4O8,77.8
Ho1Ba2Cu4O8,76.2
Y1Ba2Cu4O8,78.6
Dy1Ba2Cu4O8,73.6
Gd1Ba2Cu4O8,71.8
Tl1Sr2Ca1Cu2O6.76,21.0
Tl1Sr2Ca1Cu2O6.75,37.0
Tl1Sr2Ca1Cu2O6.74,43.0
Tl1Sr2Ca1Cu2O6.68,75.0
Tl1Sr2Ca1Cu2O6.61,52.0
Tl1Sr2Ca1Cu2O6.58,43.0
Tl1Sr2Ca1Cu2O6.52,23.0
Tl1Sr2Ca0.8Y0.2Cu2O6.82,85.0
Tl1Sr2Ca0.7Y0.3Cu2O6.84,87.0
Tl1Sr2Ca0.6Y0.4Cu2O6.86,87.0
Tl1Sr2Ca0.5Y0.5Cu2O6.89,92.0
Tl1Sr2Ca0.4Y0.6Cu2O6.93,92.0
Tl1Sr2Ca0.3Y0.7Cu2O6.97,92.0
Tl1Sr2Ca0.2Y0.8Cu2O6.97,93.0
Tl1Sr2Ca0.1Y0.9Cu2O6.97,87.0
Hg1Ba2Ca2Cu3Oz,130.0
Hg1Ba2Ca2Cu3Oz,132.0
Y1Sr2Cu2.8Re0.2O6+z,42.0
Y1Sr2Cu2.8Re0.2O6+z,55.0
Y0.25Pr0.75Sr2Cu2.8Re0.2O6+z,14.0
Er1Ba2Cu2.82Co0.18O6.74,34.0
Er0.94Ca0.04Ba2Cu2.82Co0.18O6.76,64.0
Er0.88Ca0.12Ba2Cu2.28Co0.18O6.93,77.5
Er1Ba2Cu3O7-z,91.8
Er0.5Y0.5Ba2Cu3O7-z,91.8
Y1Ba2Cu3O7-z,91.0
Pr1Ba2Cu3O7,90.0
Y1Ba1Sr1Cu3O6.91,81.0
Y1Ba1Sr1Cu2.975Sn0.025O6.92,77.0
Y1Ba1Sr1Cu2.95Sn0.05O6.96,73.7
Y1Ba1Sr1Cu2.9Sn0.1O7,69.1
Y1Ba1Sr1Cu2.85Sn0.15O7.06,63.8
Y1Ba1Sr1Cu2.8Sn0.2O7.12,49.8
Y1Ba1Sr1Cu2.75Sn0.25O7.16,40.9
Y0.9Ca0.1Ba2Cu3O6.59,68.8
Y0.9Ca0.1Ba2Cu3O6.72,82.6
Y0.9Ca0.1Ba2Cu3O6.87,85.4
Y0.9Ca0.1Ba2Cu3O6.98,81.8
Hg0.95Ce0.05Ba2Cu1O4+z,94.0
Hg0.9Ce0.1Ba2Cu1O4+z,96.0
Hg0.8Ce0.2Ba2Cu1O4+z,94.0
Hg0.7Ce0.3Ba2Cu1O4+z,94.0
Y1Ba2Cu3.98Ni0.02O8,74.0
Y1Ba2Cu3.97Ni0.03O8,70.4
Y1Ba2Cu3.96Ni0.04O8,68.2
Y1Ba2Cu3.939Ni0.061O8,63.5
Y1Ba2Cu3.92Ni0.08O8,55.1
Y1Ba2Cu3.9Ni0.1O8,52.6
Y1Ba2Cu3.8Ni0.2O8,21.0
Y1Ba2Cu1O8,80.0
Y1Ba2Cu3.992Zn0.008O8,74.0
Y1Ba2Cu3.98Zn0.02O8,67.0
Y1Ba2Cu3.96Zn0.04O8,57.6
Y1Ba2Cu3.938Zn0.062O8,47.0
Y1Ba2Cu3.92Zn0.08O8,36.7
Y1Ba2Cu3.9Zn0.1O8,22.4
Sr2Nd0.5Ca0.5Cu2F1O5,70.9
Sr2Nd0.4Ca0.6Cu2F1O5,75.1
Sr2Nd0.3Ca0.7Cu2F1O5,73.1
Sr2Nd0.2Ca0.8Cu2F1O5,86.0
Sr2Nd0.1Ca0.9Cu2F1O5,85.8
Sr2Ca1Cu2F1O5,69.1
Dy1Ba2Cu3O6.9,92.3
Dy0.95Pr0.05Ba2Cu3O6.9,91.4
Dy0.85Pr0.15Ba2Cu3O6.9,77.4
Dy0.7Pr0.3Ba2Cu3O6.9,53.9
Dy0.6Pr0.4Ba2Cu3O6.9,41.2
Dy0.5Pr0.5Ba2Cu3O6.9,27.8
Tl1Sr1.8Ca0.2Yb1Cu2O7,45.0
Tl1Sr1.7Ca0.3Yb1Cu2O7,55.0
Tl1Sr1.5Ca0.5Yb1Cu2O7,55.0
Nd1Ba2Cu3O6.93,91.5
Nd0.95Ca0.025Pr0.025Ba2Cu3O6.95,86.1
Nd0.9Ca0.05Pr0.05Ba2Cu3O6.95,81.4
Nd0.8Ca0.1Pr0.1Ba2Cu3O7.02,70.8
Bi1.6Pb0.3W0.1Sr2Ca2Cu3Oz,108.0
Nd185Ce0.15Cu1O4-z,15.0
Nd1.85Ce0.15Cu1O4-z,20.0
Y1.8Ca0.2Ba4Cu7Oz,78.0
Y1.6Ca0.4Ba4Cu7Oz,73.0
Y1Ca1Ba4Cu7Oz,53.0
Sr0.4Ca13.6Cu24O41.84,10.0
Bi4Sr3Ca3Cu4Oz,78.0
Bi4Sr3Ca3Cu3.975Fe0.025Oz,72.0
Bi4Sr3Ca3Cu3.95Fe0.05Oz,72.0
Bi4Sr3Ca3Cu3.9Fe1Oz,66.0
Bi4Sr3Ca3Cu3.8Fe0.2Oz,60.0
Bi4Sr3Ca3Cu3.7Fe0.3Oz,57.0
Bi4Sr3Ca3Cu3.975Cr0.025Oz,78.0
Bi4Sr3Ca3Cu3.95Cr0.05Oz,76.0
Bi4Sr3Ca3Cu3.9Cr0.1Oz,74.0
Bi4Sr3Ca3Cu3.8Cr0.2Oz,69.0
Bi4Sr3Ca3Cu3.975Mn0.025Oz,78.0
Bi4Sr3Ca3Cu3.95Mn0.05Oz,76.0
Bi4Sr3Ca3Cu3.9Mn0.1Oz,74.0
Bi4Sr3Ca3Cu3.8Mn0.2Oz,72.0
La1.8Sr0.2Ca1Cu2O5.96,54.0
La1.8Sr0.2Ca1Cu2O5.98,60.0
Sr2Cu1C0.96B0.04O5,7.0
Sr2Cu1C0.95B0.05O5,12.5
Sr2Cu1C0.94B0.06O5,21.0
Sr2Cu1C0.93B0.07O5,23.0
Sr2Cu1C0.92B0.08O5,25.0
Sr2Cu1C0.91B0.09O5,26.5
Sr2Cu1C0.82B0.12O5,30.0
Sr2Cu1C0.86B0.14O5,31.0
Y1Sr2Cu2Nb1O7+z,13.0
Tl3Cr1Sr8Cu4O20,25.0
Ca2Nb1O4,8.9
Ge0.5Cu0.5Sr2Ca1.9Y0.1Cu3O9.3,81.5
Ge0.5Cu0.5Sr2Ca1.8Y0.2Cu3O9.3,77.0
Ge0.5Cu0.5Sr2Ca1.7Y0.3Cu3O9.3,73.0
Ge0.4Cu0.6Sr2Ca1.9Y0.1Cu3O9.3,90.0
Ge0.4Cu0.6Sr2Ca1.8Y0.2Cu3O9.3,81.0
Ge0.4Cu0.6Sr2Ca1.7Y0.3Cu3O9.3,77.0
Hg1Ba2Cu1O4.025,20.0
Hg1Ba2Cu1O4.045,73.0
Hg1Ba2Cu1O4.055,80.0
Hg1Ba2Cu1O4.08,85.0
Hg1Ba2Cu1O4.085,92.0
Hg1Ba2Cu1O4.09,97.0
Hg1Ba2Cu1O4.1,92.0
Hg1Ba2Cu1O4.12,71.0
Hg1Ba2Cu1O4.13,60.0
Hg1Ba2Cu1O6.932,50.0
Y0.98Ca0.02Ba2Cu3O7-z,86.4
Y0.95Ca0.05Ba2Cu3O7-z,88.5
Y0.9Ca0.1Cu3O7-z,84.4
Y0.8Ca0.2Ba2Cu3O7-z,72.9
C0.15Cu0.5Ba2Ca2Cu3Oz,66.0
C0.15Cu0.5Ba2Ca2Cu3Oz,88.0
C0.5Cu0.5Ba2Ca2Cu3Oz,118.0
C0.5Cu0.5Ba2Ca2Cu3Oz,120.0
Ca1.88Na0.12Cu1Cl2O2,7.2
Ca1.84Na0.16Cu1Cl2O2,19.7
Ca1.76Na0.24Cu1Cl2O2,26.9
Ca1.7Na0.3Cu1Cl2O2,27.5
Ca1.6Na0.4Cu1Cl2O2,27.8
Ca1.5Na0.5Cu1Cl2O2,28.5
Bi0.28In0.52Pb0.2Sr2Gd0.6Ca0.4Cu2Oz,20.0
Bi0.245In0.455Pb0.3Sr2Gd0.6Ca0.4Cu2Oz,55.0
Bi0.21In0.39Pb0.4Sr2Gd0.6Ca0.4Cu2Oz,57.5
Bi0.175In0.325Pb0.5Sr2Gd0.6Ca0.4Cu2Oz,57.5
Nd0.9Ca0.1Ba2Cu3O7-z,86.0
Gd0.9Ca0.1Ba2Cu3O7-z,88.0
Ho0.9Ca0.1Ba2Cu3O7-z,89.0
Tm0.9Ca0.1Ba2Cu3O7-z,86.0
Nd1.85Ce0.15Cu1O4+-z,22.0
Pb0.24Bi1.76Sr2Ca1Cu2O8+z,68.0
Hg1Ba2Ca2Cu3O8+z,132.5
Hg1Ba2Ca3Cu4O1,115.0
Hg1Ba2Ca3Cu4O2,115.0
BaKBi1O3,31.8
Pr1Ba2Cu3O7,92.0
Bi2Sr2Cu1Oz,7.0
Bi2Sr1.975La0.025Cu1Oz,11.0
Bi2Sr1.95La0.05Cu1Oz,18.0
Bi2Sr1.9La0.1Cu1Oz,18.0
Bi2Sr1.8La0.2Cu1Oz,18.0
Bi2Sr1.7La0.3Cu1Oz,10.0
Bi2Sr1.8Ca1.2Cu2O8,79.8
Bi1.85Pb0.35Sr2Ca2Cu3.1Oz,107.0
La1.82Ca1.18Cu2O6+z,52.0
Nd1.32Sr0.41Ce0.27Cu1O4,24.0
Ba1.12Sr0.88Cu1.1C0.9O4.9+z,35.0
Pr185Ce0.15Cu1O4,20.0
Nd2Cu1FO4,22.0
Bi2Sr2Ca1Cu2O8.25,68.2
Bi2Sr2Ca1Cu1.99Co0.01Oz,66.2
Bi2Sr2Ca1Cu1.98Co0.02Oz,63.6
Bi2Sr2Ca1Cu1.96Co0.04Oz,58.9
Bi2Sr2Ca1Cu1.92Co0.08Oz,51.3
Bi2Sr2Ca1Cu1.88Co0.12Oz,44.2
Bi2Sr2Ca1Cu1.84Co0.16Oz,37.1
Bi2Sr2Ca1Cu2O8.19,92.7
Bi2Sr2Ca1Cu1.99Co0.01Oz,88.7
Bi2Sr2Ca1Cu1.98Co0.02Oz,85.8
Bi2Sr2Ca1Cu1.96Co0.04Oz,78.9
Bi2Sr2Ca1Cu1.92Co0.08Oz,68.0
Bi2Sr2Ca1Cu1.88Co0.12Oz,58.0
Bi2Sr2Ca1Cu1.84Co0.16Oz,44.2
Bi2Sr2Ca1Cu2O8.28,60.7
Bi2Sr2Ca1Cu1.99Co0.01Oz,58.9
Bi2Sr2Ca1Cu1.98Co0.02Oz,56.2
Bi2Sr2Ca1Cu1.96Co0.04Oz,51.1
Bi2Sr2Ca1Cu1.92Co0.08Oz,46.0
Bi2Sr2Ca1Cu1.88Co0.12Oz,38.4
Bi2Sr2Ca1Cu1.84Co0.16Oz,31.3
Bi2Sr2Ca1Cu2I1Oz,50.7
Bi2Sr2Ca1Cu1.99Co0.01I1Oz,49.0
Bi2Sr2Ca1Cu1.98Co0.02I1Oz,46.0
Bi2Sr2Ca1Cu1.96Co0.04I1Oz,41.5
Bi2Sr2Ca1Cu1.92Co0.08I0.94Oz,34.9
Bi2Sr2Ca1Cu1.88Co0.12I0.91Oz,28.4
Bi2Sr2Ca1Cu1.84Co0.16I0.85Oz,21.1
Y1Ba2Cu3O6.53,54.0
Y1Ba2Cu3O6.67,61.5
Y1Ba2Cu3O6.71,67.3
Y1Ba2Cu3O6.73,73.6
Y1Ba2Cu3O6.77,86.2
Y1Ba2Cu3O6.87,90.3
Y1Ba2Cu3O6.93,92.6
Bi2.11Sr1.89Cu1O6+z,6.8
Bi2.15Sr1.85Cu1O6+z,6.5
Bi2.11Sr1.89Cu1O6+z,8.5
Bi1.5Pb0.2Sr2Ca2Cu2.8Sc0.2Oz,109.0
Bi1.5Pb0.2Sr2Ca2Cu2.8Ti0.2Oz,106.0
Bi1.5Pb0.2Sr2Ca2Cu2.8V0.2Oz,106.0
Bi1.5Pb0.2Sr2Ca2Cu2.8Cr0.2Oz,108.0
Bi1.5Pb0.2Sr2Ca2Cu2.8Mn0.2Oz,107.6
Bi1.5Pb0.2Sr2Ca2Cu2.8Fe0.2Oz,24.0
Bi1.5Pb0.2Sr2Ca2Cu2.8Ni0.2Oz,54.0
Bi1.5Pb0.2Sr2Ca2Cu2Zn0.2Oz,82.3
Hg0.7Cr0.3Sr2Cu1O4.6,53.0
Bi1.6Pb0.4Sr2Ca2Cu3O10.11,105.3
Bi1.6Pb0.35V0.05Sr2Ca2Cu3O10.12,103.7
Bi1.6Pb0.3Sr2Ca2Cu3V0.1O10.12,102.5
Bi2Sr2Ca1Cu2Oz,73.5
Bi2Sr1.95Ba0.05Ca1Cu2Oz,78.6
Bi2Sr1.9Ba0.1Ca1Cu2Oz,82.6
Bi2Sr1.85Ba0.15Ca1Cu2Oz,83.5
Bi2Sr2Ca1Cu2Oz,87.6
Bi2Sr1.95Ba0.05Ca1Cu2Oz,88.3
Bi2Sr1.9Ba0.1Ca1Cu2Oz,87.7
Bi2Sr1.85Ba0.15Ca1Cu2Oz,86.3
Bi2Sr2Ca1Cu2Oz,78.0
Bi2Sr1.95Ba0.05Ca1Cu2Oz,80.0
Bi2Sr1.9Ba0.1Ca1Cu2Oz,82.2
Ca1.3Sr2.7Cu3C0.55B4.5O3+z,100.0
Ca0.5Sr2.5Cu2C0.7B0.3O3+z,52.0
Ba2Ca4Cu5C0.4B0.6O3+z,120.0
Y1Ba2Cu3Oz,94.0
Y1Ba2Cu2.97Ni0.03S0.03Oz,89.0
Y1Ba2Cu2.91Ni0.09S0.09Oz,85.0
Y1Ba2Cu2.85Ni0.15S0.15Oz,83.0
Y1Ba2Cu2.4Ni0.6S0.6Oz,70.0
Y1Ba2Cu2.94Fe0.06S0.06Oz,85.9
Y1Ba2Ca2.85Fe0.15S0.15Oz,61.4
Y1Ba2Ca2.55Fe0.3S0.3Oz,41.0
Y1Ba2Ca2.55Fe0.45S0.45Oz,24.6
Y1Ba2Cu1Oz,89.6
Y1Ba2Cu2.97Zn0.03S0.03Oz,77.7
Y1Ba2Cu2.85Zn0.15S0.15Oz,45.7
Y1Ba2Cu2.7Zn0.3S0.3Oz,35.0
Bi0.16Pb0.4Sr2Ca2Cu3O10.11,105.3
Bi0.16Pb0.35V0.05Sr2Ca2Cu3O10.12,103.7
Bi0.16Pb0.3V0.1Sr2Ca2Cu3O10.12,102.5
Pb0.5Cd0.5Sr1.8Sm1.6Ce0.6Cu2Oz,35.0
Pb0.5Cd0.5Sr1.8Eu1.6Ce0.6Cu2Oz,39.0
Pb0.5Cd0.5Sr1.8Gd1.6Ce0.6Cu2Oz,43.5
Pb0.5Cd0.5Sr1.8Dy1.6Ce0.6Cu2Oz,12.0
Hg0.7Cr0.3Sr2Cu1O4+z,51.0
Hg1.4Tl0.6Ba2Ca3Cu4Oz,114.0
Hg1.4Tl0.6Ba2Ca2Cu3Oz,45.0
Y0.99Ca0.01Ba2Cu4O8,79.4
Y0.97Ca0.03Ba2Cu4O8,81.9
Y0.95Ca0.05Ba2Cu4O8,85.4
Y0.93Ca0.07Ba2Cu4O8,83.5
Y0.9Ca0.1Ba2Cu4O8,80.8
Tm1Ba2Cu4O8,79.0
Tm0.99Ca0.01Ba2Cu4O8,79.2
Tm0.97Ca0.03Ba2Cu4O8,81.2
Tm0.95Ca0.05Ba2Cu4O8,84.8
Tm0.93Ca0.07Ba2Cu4O8,83.3
Er0.99Ca0.01Ba2Cu4O8,79.3
Er0.97Ca0.03Ba2Cu4O8,80.0
Er0.95Ca0.05Ba2Cu4O8,83.2
Ho0.99Ca0.01Ba2Cu4O8,76.8
Ho0.97Ca0.03Ba2Cu4O8,77.4
Y0.99Ca0.01Ba2Cu4O8,78.0
Sr2Y1Cu3O7.9,69.0
Sr2Y1Cu3O7.65,70.0
Sr2Y1Cu3O7.75,67.0
Sr2Y1Cu3O7.65,69.0
Sr2Y1Cu3O7.95,62.0
Sr2Y1Cu3O7.45,62.0
Sr2Tm1Cu3O7.65,62.0
Sr2Tm1Cu3O7.2,62.0
Sr2Tm1Cu3O7.28,56.0
Sr2Tm1Cu3O7.48,62.0
Sr2Tm1Cu3O7.48,55.0
Sr1.5Ba0.5Y1Cu2.8Ti0.2O7,35.0
Sr1.5Ba0.5Y1Cu2.8Ga0.2O7,38.0
Sr1.5Ba0.5Y1Cu2.8Ge0.2O7,25.0
Sr1.5Ba0.5Y1Cu2.8Mo0.2O7.03,26.0
Sr1.5Ba0.5Y1Cu2.8Ga0.2O7.2,61.0
Sr1.5Ba0.5Y1Cu2.8Ga0.2O7.14,56.0
Sr1.5Ba0.5Y1Cu2.8Ga0.2O7.1,50.0
Sr1.5Ba0.5Y1Cu2.8Ga0.2O6.96,32.0
Sr1.5Ba0.5Y1Cu2.8Ti0.2O7.2,78.0
Sr1.5Ba0.5Y1Cu2.8Ti0.2O7.08,52.0
Sr0.7Ba1.3Y1Cu2.8Al0.2O7.03,12.0
Sr0.7Ba1.3Y1Cu2.8Al0.2O7.11,20.0
Sr1Ba1Y1Cu2.8Al0.2O7.15,20.0
Sr1.2Ba0.8Y1Cu2.8Al0.2O7.19,16.0
Ga1Sr2Ca2Cu3O9,70.0
B1Sr2Ca2Cu3O9,75.0
Y1Ba2Cu3O6.93,91.4
Y1Ba2Cu2.985Ni0.015O6.92,90.5
Y1Ba2Cu2.97Ni0.03O6.94,88.5
Y1Ba2Cu2.955Ni0.045O6.95,86.2
Y1Ba2Cu2.94Ni0.06O6.94,83.5
Nd1.82Ce0.18Cu1Oz,18.0
Nd1.73Sr0.09Ce0.18Cu1Oz,16.0
Nd1.64Sr0.18Ce0.18Cu1Oz,13.0
Bi2Sr1.8La0.2Cu1Oz,21.0
Bi2Sr1.8La2Cu0.98Ni0.02Oz,17.5
Bi2Sr1.8La2Cu0.96Ni0.04Oz,12.9
Bi2Sr1.8La2Cu0.94Ni0.06Oz,10.0
Bi2Sr1.8La2Cu0.92Ni0.08Oz,3.6
Bi2Sr1.8La0.2Cu0.88Zn0.12Oz,16.8
Bi2Sr1.8La0.2Cu0.976Zn0.024Oz,11.3
Bi2Sr1.8La0.2Cu0.964Zn0.036Oz,7.0
Bi2Sr1.8La0.2Cu0.94Zn0.06Oz,5.0
Bi2Sr1.8La0.2Cu0.92Zn0.08Oz,5.1
Y1Ba2Cu3O6.96,90.7
Y1Ba2Cu2.975Co0.025Oz,91.6
Y1Ba2Cu2.95Co0.05Oz,92.2
Y1Ba2Cu2.925Co0.075Oz,88.3
Y1Ba2Cu2.9Co0.1Oz,88.6
Y1Ba2Cu2.875Co0.125Oz,77.1
Y1Ba2Cu2.85Co0.15Oz,68.6
Y1Ba2Cu2.8Co0.2Oz,61.0
Y1Ba2Cu2.75Co0.25Oz,59.7
Y1Ba2Cu2.7Co0.3Oz,52.6
Y1Ba2Cu2.6Co0.4O7.03,11.3
Eu1Ba2Cu3O6.94,93.6
Eu1Ba2Cu2.95Co0.05Oz,88.3
Eu1Ba2Cu2.9Co0.1O6.97,72.7
Eu1Ba2Cu2.8Co0.2O6.98,55.3
Eu1Ba2Cu2.7Co0.3O6.95,29.4
Nd0.7Sr1.3Cu1FO4-z,44.0
Y1Ba2Cu3Oz,89.0
Y1Ba1.5Sr0.5Cu3Oz,84.0
Y1Ba1Sr1Cu3Oz,82.5
Y1Ba0.4Sr1.6Cu3Oz,79.5
Y1Ba2Cu3O6.58,57.4
Pr1.85Ce0.15Cu1O4+z,23.2
Pr1.85Ce0.15Cu1O4+z,23.3
Pr1.9Ce0.1Cu1O4+z,24.3
Pr1.93Ce0.07Cu1O4+z,22.7
Tl1Sr2Yb0.7Ca0.3Cu2Oz,83.0
Tl1Sr2Yb0.5Ca0.5Cu2Oz,67.0
Hg1Ba2Cu1O4+z,95.1
Hg1Ba2Ca1Cu2O6+z,122.5
Hg1Ba2Ca2Cu3O8+z,133.5
Bi2Sr2Ca1Cu2O8+z,84.0
Bi2Sr2Ca1Cu1.92Co0.08O8+z,60.0
La2Cu1O4.005,32.0
La2Cu1O4.035,35.0
La2Cu1O4.021,45.0
Y1Ba2Cu3O6.94,93.0
Y1Ba2Cu3O6.75,73.0
Y1Ba2Cu3O6.63,60.0
Y1Ba2Cu3O6.48,48.5
Pr1.85Ce0.15Cu1O4+z,22.9
Pr1.87Ce0.13Cu0.997Ni0.003O4+z,18.0
Pr1.84Ce0.16Cu0.993Ni0.007O4+z,12.2
Pr1.85Ce0.15Cu0.995Co0.005O4+z,14.1
Pr1.87Ce0.13Cu0.99Co0.01O4+z,8.2
Bi1.6Pb0.4Sr2Ca3.6Oz,102.0
Bi1.6Pb0.4Sr2Ca2Cu3.8Oz,93.0
Bi1.6Pb0.4Sr2Ca2Cu4Oz,130.0
Cu0.75Ag0.25Ba2Ca3Cu4Oz,112.0
Cu0.75Ag0.25Ba2Ca3Cu4Oz,98.5
Cu0.5C0.5Ba2Ca3Cu4Oz,110.0
Cu0.5Ag0.25Ba2Ca3Cu4Oz,117.0
Ba2Ca3Cu4Oz,117.0
Bi1.95Sr1.85Pr0.2Cu1O6+z,21.0
Bi1.95Sr1.75Pr0.3Cu1O6+z,26.1
Bi1.95Sr1.65Pr0.4Cu1O6+z,30.1
Bi1.95Sr1.55Pr0.5Cu1O6+z,27.1
Bi1.95Sr1.45Pr0.6Cu1O6+z,20.1
Bi1.95Sr1.85La0.2Cu1O6+z,22.1
Bi1.95Sr1.75La0.3Cu1O6+z,31.1
Bi1.95Sr1.75La0.4Cu1O6+z,33.1
Bi1.95Sr1.55La0.5Cu1O6+z,29.2
Bi1.95Sr1.45La0.6Ca1O6+z,25.0
Bi1.95Sr1.65Nd0.4Cu1O6+z,27.4
Bi1.95Sr1.65Sm0.4Cu1O6+z,19.5
Bi1.95Sr1.65La0.4Cu1O6.2,10.0
Bi1.95Sr1.65La0.4Cu1O6.28,32.6
Bi1.95Sr1.65La0.4Cu1O6.298,34.0
Bi1.95Sr1.65La0.4Cu1O6.311,35.5
Bi1.95Sr1.65La0.4Cu1O6.334,30.5
Bi1.95Sr1.65La0.4Cu1O6.343,26.5
Bi1.95Sr1.65La0.4Cu1O6.347,24.0
Bi1.95Sr1.65La0.4Cu1O6.36,23.0
Bi1.95Sr1.65La0.4Cu1O6.414,10.4
Bi1.95Sr1.65La0.4Cu1O6.2,30.5
Bi1.95Sr1.65La0.4Cu1F0.2O6,30.1
Bi1.95Sr1.65La0.4Cu1F0.4O5.8,29.0
Bi1.95Sr1.65La0.4Cu1F0.6O5.6,25.1
Bi1.95Sr1.65La0.4Cu1F0.8O5.4,13.0
Bi3.2Pb0.2V0.6Sr4Ca5Cu7Oz,78.5
Bi3.2Pb0.4V0.4Sr4Ca5Cu7Oz,108.5
Bi3.2Pb0.6V0.2Sr4Ca5Cu7Oz,110.5
Bi3.2Pb0.8Sr4Ca5Cu7Oz,108.9
Bi2.6Pb0.8V0.6Sr4Ca5Cu7Oz,110.8
Bi2.8Pb0.8V0.4Sr4Ca5Cu7Oz,111.0
Bi3Pb0.8V0.2Sr4Ca5Cu7Oz,110.8
Bi3.4V0.6Sr4Ca5Cu7Oz,82.2
Bi3.6V0.4Sr4Ca5Cu7Oz,84.0
Hg0.8Ti0.2Sr2Ca0.7Y0.3Cu2O6+z,56.75
Hg0.8Ti0.2Sr2Ca0.6Y0.4Cu2O6+z,53.75
Hg0.8Ti0.2Sr2Ca0.5Y0.5Cu2O6+z,60.55
Hg0.8Ti0.2Sr2Ca0.4Y0.6Cu2O6+z,55.0
Bi1.7Pb0.3Sr2Ca1Cu2O8.05,80.5
Bi1.7Pb0.3Sr2Ca0.99Nd0.01Cu2O8.03,82.5
Bi1.7Pb0.3Sr2Ca0.98Nd0.02Cu2O8.05,80.89
Bi1.7Pb0.3Sr2Ca0.96Y0.04Cu2O8.06,78.5
Bi1.7Pb0.3Sr2Ca0.94Nd0.06Cu2O8.1,81.27
Bi1.7Pb0.3Sr2Ca0.92Nd0.08Cu2O8.16,84.11
Bi1.7Pb0.3Sr2Ca0.9Nd0.1Cu2O8.27,76.67
Y0.5Sm0.5Ba2Cu3O7-z,92.0
Er0.76Ca0.24Ba2Cu2.76Co0.24O6.92,84.0
Er0.76Ca0.24Ba1.8Sr0.2Cu2.76Co0.24O6.91,81.0
Er0.76Ca0.24Ba1.6Sr0.4Cu2.76Co0.24O6.88,77.0
Er0.76Ca0.24Ba1.4Sr0.6Cu2.76Co0.24O6.84,64.0
Er0.64Ca0.36Ba1.4Sr0.6Cu2.76Co0.24O6.8,48.0
Er0.52Ca0.48Ba1.4Sr0.6Cu2.76Co0.24O6.77,54.0
La1Ba2Cu3Oz,70.34
La1Ba2Cu2.97Fe0.03Oz,55.23
La1Ba2Cu2.94Fe0.06Oz,35.9
Y1Ba1Sr1Cu2.5B0.5Oz,41.2
Y1Ba1Sr1Cu2.5B0.1S0.4Oz,44.0
Y1Ba1Sr1Cu2.5S0.5Oz,50.9
Y1Ba1Sr1Cu2.5B0.2S0.3Oz,25.0
Y1Sr0.5Ba1.5Cu2.5B0.1S0.4Oz,56.5
Y1Sr0.5Ba1.5Cu2.5S0.5Oz,75.6
Y1Ba2Cu2.8Fe0.2Oz,57.0
Y1Ba2Cu2.8Zn0.2Oz,51.7
Y1Ba2Cu2.94Zn0.06O7-z,73.0
Y1Ba2Cu2.88Zn0.12O7-z,60.0
Bi2Sr2Ca1Cu2O8+z,82.0
Bi2Sr2Ca0.79Y0.21Cu2O8+z,89.4
Bi2Sr2Ca0.72Y0.28Cu2O8+z,91.5
Bi2Sr2Ca0.64Y0.36Cu2O8+z,88.0
Hg0.7V0.3Ba2Cu1O3.4+z,70.0
Hg0.7V0.3Ba1.75Sr0.25Cu1O4.6+z,65.0
Hg0.7V0.3Ba1.5Sr0.5Cu1O4.6+z,65.0
Hg0.7V0.3Ba1.25Sr0.75Cu1O4.6+z,55.0
Hg0.7V0.3Ba1Sr1Cu1O4.6+z,45.0
Hg0.7V0.3Ba2Cu1O4.6+z,95.0
Hg0.7V0.3Ba1.75Sr0.25Cu1O4.6+z,90.0
Hg0.7V0.3Ba1.5Sr0.5Cu1O4.6+z,85.0
Hg0.7V0.3Ba1.25Sr0.75Cu1O4.6+z,75.0
Hg0.7V0.3Ba1Sr1Cu1O4.6+z,65.0
Cu0.8W0.2Sr2Y1Cu2O7.3,77.0
Cu0.8Mo0.2Sr2Y1Cu2O7.3,65.0
Cu0.85Re0.15Sr2Y1Cu2O7.3,69.0
Cu2.8W0.2Sr2Y0.9Ca0.1Oz,76.0
Cu2.8Mo0.2Sr2Y0.9Ca0.1Oz,71.0
Cu2.85Re0.15Sr2Y0.9Ca0.1Oz,73.0
Ca1La1Ba1Cu3O7,69.0
Ca1La1Ba1Cu2.97Fe0.03O7,49.0
Ca1La1Ba1Cu2.94Fe0.06O7,44.0
Ca1La1Ba1Cu2.88Fe0.12O7,28.0
Ca1La1Ba1Cu2.76Fe0.24O7,22.0
Hg0.9S0.1Ba2Cu1Oz,41.0
Hg0.85S0.15Ba2Cu1Oz,62.0
Hg0.8S0.2Ba2Cu1Oz,65.0
Hg0.75S0.25Ba2Cu1Oz,63.0
Hg0.7S0.3Ba2Cu1Oz,73.0
Hg0.5S0.5Ba2Cu1Oz,71.0
Hg0.85S0.15Ba2Cu1Oz,77.0
Hg1Ba2Cu1Oz,88.0
Y1Ba2Cu2.99Zn0.01O6+z,89.0
Y1Ba2Cu2.979Zn0.021O6+z,83.0
Y1Ba2Cu2.954Zn0.047O6+z,74.0
Y1Ba2Cu2.913Zn0.087O6+z,57.0
Nd1Ba2Cu3O6.67,29.0
H0.2La1.8Sr0.2Cu1O4,32.0
Ca1La1Ba1Cu3O7,70.0
Ca1La1Ba1Cu2.97Zn0.03O7,60.0
Ca1La1Ba1Cu2.85Zn0.045O7,55.0
Ca1La1Ba1Cu2.91Zn0.09O7,20.0
Ca1La1Ba1Cu2.88Zn0.12O7,14.0
Ca1Ba1La1Cu3O7,47.0
Pb2Sr2Ca0.5Y0.5Cu3Oz,71.0
Pb1.4V0.6Sr2Ca0.5Y0.5Cu3Oz,40.0
Pb1.4Cr0.6Sr2Ca0.5Y0.5Cu3Oz,67.0
Yb0.8Sr0.2Ba2Cu3O7-z,68.0
Bi1.8Pb0.2Sr2Ca1Cu1.98Fe0.02O8,54.8
Bi1.8Pb0.2Sr2Ca1Cu1.96Fe0.04O8,48.5
Bi1.8Pb0.2Sr2Ca1Cu1.92Fe0.08O8,33.8
Bi1.8Pb0.2Sr2Ca1Cu1.88Fe0.12O8,30.9
Bi1.8Pb0.2Sr2Ca1Cu1.84Fe0.16O8,26.1
Bi1.8Pb0.2Sr2Ca1Cu1.96Co0.04O8,50.7
Bi1.8Pb0.2Sr2Ca1Cu1.94Co0.06O8,48.6
Bi1.8Pb0.2Sr2Ca1Cu1.92Co0.08O8,43.0
Bi1.8Pb0.2Sr2Ca1Cu1.88Co0.12O8,38.8
Bi1.8Pb0.2Sr2Ca1Cu1.84Co0.16O8,35.8
Hg1Ba2Ca3Cu4O10+z,127.0
Bi2Sr2Ca1Cu2O8,92.4
Tl2Ba2Cu1O6,92.1
Tl2Ba2Ca1Cu2O8,108.7
Hg0.7V0.3Sr1.8La0.2Cu1O4+z,41.3
Hg0.7V0.3Sr1.7La0.3Cu1O4+z,49.7
Hg0.7V0.3Sr1.6La0.4Cu1O4+z,47.1
Hg0.7V0.3Sr1.5La0.5Cu1O4+z,49.7
Hg0.7V0.3Sr1.4La0.6Cu1O4+z,48.8
Hg0.7V0.3Sr1.3La0.7Cu1O4+z,51.8
Hg0.7V0.3Sr1.2La0.8Cu1O4+z,49.7
Y1Ba2Cu3O6.346,12.3
Y1Ba2Cu3O6.409,26.0
Y1Ba2Cu3O6.55,54.1
Y1Ba2Cu3O6.6,58.4
Y1Ba2Cu3O6.72,80.7
Y1Ba2Cu3O6.74,82.6
Y1Ba2Cu3O6.78,88.1
Y1Ba2Cu3O4.86,93.2
Y1Ba2Cu3O7,94.3
Y1Sr1Ba1Cu2.5B0.5Oz,25.0
Y1.4Ce0.5Sr2.1Cu2.75S0.25Oz,20.0
Y0.85Ca0.15Sr1Ba1Cu2.5B0.5Oz,36.0
Y0.85Ca0.15Sr0.5Ba1.5Cu2.5B0.5Oz,55.0
Nd1Ba2Cu3Oz,98.7
Nd1.05Ba1.95Cu3Oz,98.6
Nd1.1Ba1.9Cu3Oz,98.3
Nd1.15Ba1.85Cu3Oz,94.0
Nd1.2Ba1.8Cu3Oz,96.1
Nd1.25Ba1.75Cu3Oz,97.4
Bi2Sr2Ca0.9Ce0.1Cu2O8+z,90.0
Bi2Sr2Ca0.8Ce0.2Cu2O8+z,81.0
Bi2Sr2Ca0.7Ce0.3Cu2O8+z,78.0
Bi2Sr2Ca0.6Ce0.4Cu2O8+z,71.0
Bi2Sr2Ca0.5Ce0.5Cu2O8+z,60.0
Y1Ba2Cu3O7-z,86.0
Y1Ba2Cu3O6.556,59.4
Y1Ba2Cu3O6.516,57.7
Y1Ba2Cu4O8,80.2
Bi2Sr2Ca1Cu2O8,86.4
Y1Ba2Cu3O7,92.3
Y1Ba2Cu3O7,91.7
Y1Ba2Cu4O8,80.1
Y2Ba4Cu7O14,94.2
Y2Ba4Cu7O14,94.8
Bi2Sr2Ca1Cu2O8,93.7
Y1Ba2Cu4O8,81.8
Ba1Pb0.75Bi0.25O3,12.0
La1.85Sr0.15Cu1Oz,38.2
La1.85Sr0.15Cu0.99Mg0.01Oz,30.0
La1.85Sr0.15Cu0.98Mg0.02Oz,15.9
La1.85Sr0.15Cu0.99Ni0.01Oz,32.1
La1.85Sr0.15Cu0.98Ni0.02Oz,28.0
La1.85Sr0.15Cu0.97Ni0.03Oz,21.9
La1.85Sr0.15Cu0.96Ni0.04Oz,16.1
Bi2Sr2Ca1Cu2O8,85.1
Bi2.1Sr2Ca1Cu2O8+z,89.0
Bi2Sr2Cu1O6,12.5
Bi2Sr1.8Ca1.2Cu2O8,79.5
Dy1Ba2Cu3O7-z,83.8
Bi2Sr2Ca1Cu2Oz,63.0
Bi1.9Cd0.1Sr2Ca1Cu2Oz,60.0
Bi1.8Cd0.2Sr2Ca1Cu2Oz,58.0
Bi1.7Cd0.3Sr2Ca1Cu2Oz,53.0
Bi1.5Cd0.5Sr2Ca1Cu2Oz,45.0
Bi1.4Cd0.6Sr2Ca1Cu2Oz,34.0
Tl1.9Sm0.1Ba2Cu1FOz,98.5
Tb1Sr2Cu2.69Mo0.31O7,34.5
Y1Ba2Cu3O6.68,63.0
Y1Ba2Cu2.97Zn0.03O6.93,80.0
Bi2Sr2Ca1Cu2O8.214,70.0
Bi2Sr2Ca1Cu2O8.216,78.0
Bi2Sr2Ca1Cu2O8.22,82.0
Bi2Sr2Ca1Cu2O8.23,86.0
Bi2Sr2Ca1Cu2O8.24,88.0
Bi2Sr2Ca1Cu2O8.25,89.0
Bi2Sr2Ca1Cu2O8.26,86.0
Bi2Sr2Ca1Cu2O8.27,84.0
Bi2Sr2Ca1Cu2O8.28,81.0
Nd1.05Ba1.95Cu3O7+z,91.9
Nd1.15Ba1.85Cu3O7+z,67.1
Nd1.25Ba1.75Cu3O7+z,43.8
Nd1.3Ba1.7Cu3O7+z,33.8
Nd1.4Ba1.6Cu3O7+z,7.9
Nd1Ba2Cu3O7-z,93.4
Nd0.97Ca0.015Th0.015Ba2Cu3O7-z,90.4
Nd0.94Ca0.03Th0.03Ba2Cu3O7-z,86.8
Nd0.9Ca0.05Th0.05Ba2Cu3O7-z,81.8
Nd0.8Ca0.1Th0.1Ba2Cu3O7-z,73.4
Bi1.6Pb0.4Sr2Ca3Cu4O12-z,110.0
Bi1.6Pb0.4Sr2Ca3Cu3.92Si0.08O12-z,110.0
Bi1.6Pb0.4Sr2Ca3Cu3.88Si0.12O12-z,110.0
Bi1.6Pb0.4Sr2Ca3Cu3.86Si0.14O12-z,110.0
Bi1.6Pb0.4Sr2Ca3Cu3.5Si0.5O12-z,110.0
Eu1.5Ce0.5Sr2Cu2Nb1O9.955,21.0
Eu1.45Pr0.05Ce0.5Sr2Cu2Nb1O10=z,21.4
Eu1.4Pr0.1Ce0.5Sr2Cu2Nb1O10-z,18.4
Eu1.35Pr0.15Ce0.5Sr2Cu2Nb1O10-z,18.0
Eu1.3Pr0.2Ce0.5Sr2Cu2Nb1O10-z,13.4
Eu1.25Pr0.25Ce0.5Sr2Cu2Nb1O10-z,7.8
Eu1.23Pr0.27Ce0.5Sr2Cu2Nb1O10-z,2.9
Nd1.5Ce0.5Sr2Cu2Nb1O10-z,24.0
Nd1Pr0.5Ce0.5Sr2Cu2Nb1O10-z,20.5
Nd1.4Pr0.1Ce0.5Sr2Cu2Nb1O10-z,17.2
Nd1.35Pr0.15Ce0.5Sr2Cu2Nb1O10-z,11.3
Nd1.3Pr0.2Ce0.5Sr2Cu2Nb1O10-z,4.4
Sm1.5Ce0.5Sr2Cu2Nb1O10-z,26.0
Sm1.45Pr0.05Ce0.5Sr2Cu2Nb1O10-z,25.2
Sm1.4Pr0.1Ce0.5Sr2Cu2Nb1O10-z,22.8
Sm0.35Pr0.15Ce0.5Sr2Cu2Nb1O10-z,17.6
Sm1.3Pr0.2Ce0.5Sr2Cu2Nb1O10-z,12.8
Sm1.25Pr0.25Ce0.5Sr2Cu2Nb1O10-z,2.7
Y1Ba2Cu4O8,78.8
Nd1.85Ce0.15Cu1O4+z,22.0
Lu0.9Ca0.1Ba2Cu3O6+z,18.0
Lu0.8Ca0.2Ba2Cu3O6.13,41.0
Lu0.7Ca0.3Ba2Cu3O6.15,58.0
Lu0.6Ca0.4Ba2Cu3O6+z,74.0
Lu0.8Ca0.2Ba2Cu3O6.54,65.0
Lu0.7Ca0.3Ba2Cu3O6.4,68.0
Lu0.8Ca0.2Ba2Cu3O6.81,52.0
Lu0.7Ca0.3Ba2Cu3O6.78,54.0
Lu0.8Ca0.2Ba2Cu3O6.68,78.0
Lu0.7Ca0.3Ba2Cu3O6.62,80.0
Lu0.8Ca0.2Ba2Cu3O6.91,48.0
Lu0.7Ca0.3Ba2Cu3O6.88,45.0
Eu1Ba2Cu2.7Co0.3Oz,33.0
Eu1Ba2Cu2.65Co0.35Oz,9.6
Tl0.5V0.5Sr2Ca1Cu2Oz,83.5
Tl0.5V0.5Sr2Ca0.8Y0.2Cu2Oz,100.0
Nd2Ba4Cu7O14.525,66.0
Nd1.8Pr0.2Ba4Cu7O14.587,56.0
Nd1.6Pr0.4Ba4Cu7O14.603,48.0
Nd1.4Pr0.6Ba4Cu7O14.541,41.0
Eu2Ba4Cu7O14.671,75.0
Eu1.8Pr0.2Ba4Cu7O14.779,68.0
Eu1.6Pr0.4Ba4Cu7O14.761,63.0
Eu1.4Pr0.6Ba4Cu7O14.632,58.0
Eu1.2Pr0.8Ba4Cu7O14.788,52.0
Tm2Ba4Cu7O14.732,88.0
Tm1.8Pr0.2Ba4Cu7O14.725,76.0
Tm1.6Pr0.4Ba4Cu7O14.722,68.0
Tm1.4Pr0.6Ba4Cu7O14.667,60.0
Tm1.2Pr0.8Ba4Cu7O14.652,50.0
Bi2Sr2Ca2Cu3O1,114.0
Bi1.8V0.2Sr2Ca2Cu3O2,112.0
Bi1.6V0.4Sr2Ca2Cu3O10+z,92.0
Bi1.4V0.6Sr2Ca2Cu3O10+z,67.0
Bi1.2V0.8Sr2Ca2Cu3O10+z,30.0
Bi1V1Sr2Ca2Cu3O10+z,15.0
Gd1Ba2Cu4O8,73.1
Gd1Sr0.1Ba1.9Cu4O8,73.5
Gd1Sr1.8Ba0.2Cu4O8,73.1
Ho1Ba2Cu4O8,68.5
Ho1Sr0.2Ba1.8Cu4O8,68.8
Ho1Sr0.4Ba1.6Cu4O8,68.1
Ho1Sr0.6Ba1.4Cu4O8,68.3
Nd1Ba2Cu3O7-z,94.0
Bi2Sr1.65La0.35Cu1Oz,26.95
Bi1.9Pb0.1Sr1.65La0.35Cu1Oz,30.7
Bi1.8Pb0.2Sr1.65La0.35Cu1Oz,36.8
Bi1.7Pb0.3Sr1.65La0.35Cu1Oz,37.75
Bi1.6Pb0.4Sr1.65La0.35Cu1Oz,40.3
Bi1.4Pb0.6Sr1.65La0.35Cu1Oz,41.0
Bi2Sr1.65La0.35Cu1Oz,29.35
Bi1.9Pb0.1Sr1.65La0.35Cu1Oz,30.05
Bi1.8Pb0.2Sr1.65La0.35Cu1Oz,30.9
Bi1.7Pb0.3Sr1.65La0.35Cu1Oz,31.05
Bi1.6Pb0.4Sr1.65La0.35Cu1Oz,26.85
Bi1.4Pb0.6Sr1.65La0.35Cu1Oz,25.2
La3.1Gd0.2Ca0.4Ba3.3Cu7O16.473,48.0
La2.9Gd0.3Ca0.6Ba3.2Cu0.3O16.503,58.0
La2.7Gd0.4Ca0.8Ba3.1Cu7O16.537,74.0
La2.5Gd0.5Ca1Ba3Cu7O16.359,80.0
La2.3Gd0.6Ca1.2Ba2.9Cu7O16.543,80.0
La2.1Gd0.7Ca1.4Ba2.8Cu0.7O16.471,79.0
La2.9Nd0.3Ca0.6Ba3.2Cu7Oz,58.0
La2.7Nd0.4Ca0.8Ba3.1Cu7Oz,76.0
La2.5Nd0.5Ca1Ba3Cu7Oz,80.0
La2.1Nd0.7Ca1.4Ba2.8Cu7Oz,79.0
La2.5Dy0.5Ca1Ba3Cu7Oz,80.0
Y1Ba2Cu3Li0.02O7-z,91.18
Y1Ba2Cu3Li0.08O7-z,89.2
Y1Ba2Cu3Li0.1O7-z,88.91
Y1Ba2Cu3Li0.3O7-z,86.0
Y1Ba2Cu3Li0.5O7-z,83.79
La1.85Sr0.15Cu0.9Mg0.1O4,29.6
La1.85Sr0.15Cu0.8Mg0.2O4,15.6
Bi2Sr2Ca1Cu2Zn0.01C0.32H0.16N0.08Oz,68.3
Bi2Sr2Ca1Cu2Zn0.02C0.64H0.32N0.16Oz,65.1
Bi2Sr2Ca2Cu3Zn0.009C0.288H0.144N0.72Oz,92.9
Bi2Sr2Ca2Cu3Zn0.013C0.416H0.208N0.104Oz,91.0
Bi2Sr2Ca2Cu3Zn0.017C0.544H0.272N0.136Oz,87.1
Bi2Sr2Ca2Cu3Zn0.02C0.64H0.32N0.16Oz,79.8
Nd1Ba2Cu3O6.95,89.0
Nd1.1Ba1.9Cu3O6.96,87.6
Nd1.15Ba1.85Cu3O6.96,76.8
Nd1.25Ba1.75Cu3O6.99,52.7
Nd1.35Ba1.65Cu3O7.02,35.9
Nd1.45Ba1.55Cu3O7.08,26.5
Nd1.5Ba1.5Cu3O7.12,15.4
Pb2Sr2Y0.5Ca0.5Cu3O8.1882,62.0
Pb2Sr2Y0.5Ca0.5Cu3F0.253O7.9858,68.0
Pb2Sr2Y0.5Ca0.5Cu3F0.5612O7.649,72.0
Pb2Sr2Y0.5Ca0.5Cu3F0.8115O7.3458,78.0
Pb2Sr2Y0.5Ca0.5Cu3F1.0031O7.2608,73.0
Hg1Ba2Ca3Cu4OZ,123.0
Bi2Sr2Ca1Cu2O8-X,92.0
Bi2Sr2Ca1Cu2O8-X,85.0