composition,critical_temperature_tc
Sm1Ni0.78Bi2.08,4.2
Gd1Ni0.72Bi1.91,4.2
Tb1Ni0.74Bi1.9,4.2
Dy1Ni0.74Bi1.78,4.2
Nd1Bi1S2F0.5O0.5,4.95
P1,9.5
La1Ni1C2,2.86
La1Ni0.95Cu0.05C2,3.15
La1Ni0.9Cu0.1C2,3.24
La1Ni0.85Cu0.15C2,3.31
La1Ni0.8Cu0.2C2,3.45
La1Ni0.75Cu0.25C2,3.48
La1Pd2Ge2,0.96
La3Pd4Ge4,2.23
La3Ni4Si4,0.96
La3Ni4Ge4,0.74
Pr0.8Sr0.2Fe1As1O1,13.6
Pr0.8Sr0.2Fe0.97Zn0.03As1O1,13.0
Pr0.8Sr0.2Fe0.94Zn0.06As1O1,12.0
K1.15M1Fe2.02Se2,10.0
Na1.23M1Fe1.85Se2,35.0
Rb1.21M1Fe1.85Se2,15.0
Li1M1Fe2Se2,45.0
Li1M1Fe2Se2,40.0
Ir1Sn4,0.93
La1Pt4Ge12,8.2
Nd1Pt4Ge12,0.7
Bi4S3O4,4.47
La1Bi1S2F0.5O0.5,8.65
H1W1O3,120.0
Li0.6M1Fe2Se2,43.0
La3Pd4Ge4,2.5
Mg1B2,33.0
Mg1B2M0.05,37.5
Mg1B2M0.5,37.8
Mg1B2M5,36.4
Au25Sb75,6.7
Pd16.5Sb83.5,4.9
In25Sb75,4.1
In31.5Sb68.5,3.7
Au30Pd3.3Te66.6,2.6
Au16.7Pd16.6Te66.7,4.6
La1Bi1S2F0.5O0.5,3.1
Ce1Bi1S2F0.5O0.5,1.89
Pr1Bi1S2F0.5O0.5,4.29
Nd1Bi1S2F0.5O0.5,4.37
Yb1Bi1S2F0.5O0.5,5.3
Pr1Ru4As12,2.5
Na1Fe1As1,8.94
Na1Fe0.995Co0.005As1,9.81
Na1Fe0.99Co0.01As1,17.8
Na1Fe0.985Co0.015As1,19.9
Na1Fe0.97Co0.03As1,21.0
Na1Fe0.95Co0.05As1,15.9
Ba1Ti2Sb2O1,0.95
Ba0.85Na0.15Fe2As2,5.3
Ba0.8Na0.2Fe2As2,11.8
Ba0.76Na0.24Fe2As2,15.9
Ba0.7Na0.3Fe2As2,23.8
Ba0.65Na0.35Fe2As2,33.1
Ba0.6Na0.4Fe2As2,33.7
Ba0.5Na0.5Fe2As2,32.8
Ba0.4Na0.6Fe2As2,28.7
Ba0.3Na0.7Fe2As2,24.2
Ba0.2Na0.8Fe2As2,19.2
Ba0.1Na0.9Fe2As2,18.4
La1Rh1P1,2.5
La1Ir1P1,5.3
La1Ir1As1,3.1
Pr4Fe2As2Te0.88O4,25.0
Sm4Fe2As2Te0.92O4,25.0
Gd4Fe2As2Te0.9O4,25.0
Sm4Fe2As2Te0.72F1.2O2.8,40.0
Gd4Fe2As2Te0.92F0.8O3.2,45.0
Ba1Fe1.857Co0.13Mn0.013As2,18.0
Ba1Fe1.832Co0.15Mn0.018As2,13.5
Ba1Fe1.86Co0.12Mn0.02As2,12.5
Ba1Fe1.84Co0.13Mn0.03As2,8.0
Ba1Fe2As1.3P0.7,30.0
Ba1Fe1.97Mn0.03As1.3P0.7,16.0
Ce1Ir1In5,1.273
Mo1Sn0.03Sr2Y1Cu2O8-z,26.0
Ce1Ir1In4.973Hg0.027,0.955
Ce1Ir1In4.955Hg0.045,0.993
Ce1Ir1In4.946Hg0.054,0.476
Ce1Ir1In4.996Sn0.004,1.043
Ce1Ir1In4.986Sn0.014,0.8
Ce1Ir1In4.97Sn0.03,0.66
Ce1Ir0.987Pt0.013In5,0.897
Ce1Ir0.978Pt0.022In5,0.734
Ce1Ir0.956Pt0.044In5,0.429
Na1Fe1As1,11.1
Na1Fe0.99Co0.01As1,13.0
Na1Fe0.98Co0.02As1,18.8
Na1Fe0.97Co0.03As1,20.4
Na1Fe0.95Co0.05As1,17.0
Na1Fe0.92Co0.08As1,7.53
Ba1Fe1.926Co0.074As2,6.2
Ba1Fe1.92Co0.08As2,6.7
Ba0.95Rb0.05Ti2Sb2O1,4.25
Ba0.9Rb0.1Ti2Sb2O1,5.33
Ba0.8Rb0.2Ti2Sb2O1,6.19
Ba0.7Rb0.3Ti2Sb2O1,5.93
Ba0.6Rb0.4Ti2Sb2O1,5.71
La1Pd1Si3,2.65
La1Pt1Si3,1.52
Tl0.4Rb0.4Fe1.67Se2,31.8
K0.8Fe1.7Se2,32.0
Ir0.95Pd0.05Te2,2.5
K0.38W1O3,2.09
K0.4W1O3,1.74
K0.42W1O3,1.34
K0.45W1O3,0.885
La3Co4Sn13,1.95
La3Co4Sn13,2.85
La1F0.5Bi1S2O0.5,9.25
Ca10Pt0.78Fe9.22As18,9.96
Bi2.15Sr1.9Cu1O6+z,4.0
Bi2.15Sr1.9Cu1O6+z,4.3
Ca3Ir4Ge4,1.7
Pb4Ag1Bi6Se14,1.075
Pb3.9Ag1.1Bi6Se14,1.7
Nb0.87Si0.09N0.87O0.13,16.35
Nb1N0.87O0.13,17.2
Bi2Sr2Cu1O6+z,6.0
Bi2Sr2Cu1O6+z,9.0
Pb0.445Sn0.445In0.13Te1,3.2
Pb0.42Sn0.42In0.16Te1,3.4
Pb0.4Sn0.4In0.2Te1,4.0
Pb0.35Sn0.35In0.3Te1,4.8
La1Bi1S2F0.5O0.5,2.65
La1Bi1S2F0.5O0.5,7.92
La1Bi1S2F0.5O0.5,5.43
La1Bi1S2F0.5O0.5,4.51
La1Bi1S2F0.5O0.5,2.75
Y1Pt1Bi1,0.98
Nb2B1N1,4.4
Ce1Ni0.8Bi2,4.2
La0.9Y0.1Co2B2,4.1
La2Sb1,5.3
Sm1Fe0.96Ni0.04As1O1,7.5
Sm1Fe0.94Ni0.06As1O1,9.0
Sm1Fe0.92Ni0.08As1O1,6.0
Ba0.96K0.04Ti2Sb2O1,3.88
Ba0.95K0.05Ti2Sb2O1,4.25
Ba0.9K0.1Ti2Sb2O1,5.13
Ba0.88K0.12Ti2Sb2O1,6.1
Ba0.85K0.15Ti2Sb2O1,5.86
Ba0.8K0.2Ti2Sb2O1,3.0
Eu1Sr2Ta0.8Sn0.2Cu2O8-z,40.0
Sm1Sr2Ta0.8Sn0.2Cu2O8-z,30.0
Na1M1Fe2Se2,45.0
Nb0.6Al0.08N0.79O0.21,7.0
Nb0.89Al0.11N0.85O0.17,17.3
Nb0.95Mg0.05N0.92O0.08,15.0
Nb0.95Mg0.05N0.92O0.08,17.6
Nb0.9Mg0.1N0.87O0.13,5.0
Nb0.9Mg0.1N0.87O0.13,16.2
Nb1N0.98O0.02,17.7
Nb0.95Mg0.05N0.92O0.08,17.0
Nb0.89Al0.11N0.84O0.16,16.7
Nb0.87Si0.09N0.13O0.13,16.8
Ti0.4V0.6,7.46
Ti0.6V0.4,7.15
Ti0.7V0.3,7.0
Ti0.8V0.2,4.15
Ce1Pd1Bi1,1.3
La1C2,1.695
La1C2,1.8
Sr1Pd1Ge3,1.5
Ba1Pt1Si3,1.75
Sr1Pt1Ge3,1.0
La1Pd0.6Ge0.14,2.8
Fe1Se0.3Te0.7,14.5
Fe0.99Co0.01Se0.3Te0.7,13.3
Fe0.98Co0.02Se0.3Te0.7,10.3
Fe0.97Co0.03Se0.3Te0.7,9.24
Fe0.95Co0.05Se0.3Te0.7,8.2
Fe0.99Ni0.01Se0.3Te0.7,9.5
Fe0.98Ni0.02Se0.3Te0.7,2.1
Fe0.99Zn0.01Se0.3Te0.7,13.0
Fe0.98Zn0.02Se0.3Te0.7,12.0
Fe0.97Zn0.03Se0.3Te0.7,11.8
Fe0.95Zn0.05Se0.3Te0.7,13.5
Cu0.1Bi2Se3,2.95
Au0.65Pt0.35Te2,4.1
Au1Te2,1.8
La1Pt2Ge2,0.41
La1Pt1.85Ge2.15,1.85
La1Pt1.8Ge2.2,1.95
Al2C1Mo3,8.2
Pr2Ba4Cu7O14.44,20.75
Sn0.95In0.05Te1,1.21
Pb0.2375Sn0.7125In0.05Te1,2.66
Pb0.3325Sn0.6175In0.05Te1,1.61
Sn0.84In0.16Te1,2.14
Pb0.252Sn0.588In0.16Te1,3.92
Pb0.42Sn0.42In0.16Te1,4.21
Sn0.975In0.025Te1,0.84
Sn0.92In0.08Te1,1.36
Sn0.84In0.16Te1,2.12
Pb0.196Sn0.784In0.02Te1,1.68
Pb0.184Sn0.736In0.08Te1,2.84
Pb0.16Sn0.64In0.2Te1,3.31
Pb0.38Sn0.57In0.05Te1,0.68
Pb0.352Sn0.528In0.12Te1,3.6
Pb0.32Sn0.48In0.2Te1,4.19
Y1Pt2Si2,1.5
La1Pt2Si2,1.5
Lu1Pt2Si2,1.9
Ba1Ti2Sb2O1,1.19
Ba1Ti2Sb1.8Sn0.2O1,2.2
Ba1Ti2Sb1.7Sn0.3O1,2.2
Ba1Ti2Sb1.6Sn0.4O1,2.31
Ba1Ti2Sb1.4Sn0.6O1,2.49
Sc5Ir4Si10,8.0
Pr2Ba4Cu7O15-z,27.0
Nd1Bi1S2F0.3O0.7,5.25
Au1Te2,2.3
La1Ru4P12,6.57
Ca0.9La0.1Fe1As2,34.0
Ca0.79La0.21Fe1As2,25.0
Li1M1Fe2Se2,41.0
Li1M1Fe2Se2,35.0
Lu1Ru2,2.23
Ru2Y1,2.75
Ru2Sc1,2.36
Ce0.95Nd0.05Co1In5,1.9
Ce0.965La0.035Co1In5,1.84
Sr0.58La0.42Bi1S2F1,2.13
Sr0.55La0.45Bi1S2F1,3.1
Sr0.5La0.5Bi1S2F1,3.04
Sr0.4La0.6Bi1S2F1,2.96
Ca0.9La0.1Fe1As1H1,28.2
Ca0.8La0.2Fe1As1H1,40.6
Ca0.7La0.3Fe1As1H1,35.7
Cr2Re3B1,4.8
Sr1Ca13Cu24O41,11.8
Ba2Bi1.75Sb1.25,3.51
Ba2Bi2Sb1,3.92
Ba2Bi2.25Sb0.75,4.06
Ba2Bi2.5Sb0.5,4.25
Ba2Bi2.75Sb0.25,4.46
Ba2Bi3,4.48
Zr1P1.5Se0.5,5.76
Zr1P1.35Se0.65,6.24
Zr1P1.25Se0.75,6.3
Zr1P1.1Se0.9,5.34
Zr1P0.6Se1.4,4.11
Zr1P1.6S0.4,4.36
Zr1P1.4S0.6,4.99
Zr1P1.25S0.75,4.85
Zr1P1S1,3.6
Hf1P1.5S0.5,4.63
Hf1P1.7S0.3,3.71
Hf1P1.5S0.5,5.31
As1Cr1,2.17
Li2Ir1Si3,3.7
K0.8Fe1.78Se2,32.0
Tl0.6Rb0.4Fe1.67Se2,32.0
La1Fe1As1H0.08O0.92,28.7
La1Fe1As1H0.21O0.79,17.8
La1Fe1As1H0.3O0.7,38.0
La1Fe1As1H0.46O0.54,36.2
La1Fe1As1H0.24O0.76,30.1
Gd1Fe1As1H0.1O0.9,55.0
Gd1Fe1As1H0.3O0.7,45.9
Sm1Fe1As1H0.066O0.934,43.3
Sm1Fe1As1H0.25O0.75,54.7
Sm1Fe1As1H0.4O0.6,46.4
Ce1Fe1As1H0.065O0.935,41.1
Ce1Fe1As1H0.22O0.78,48.0
Ce1Fe1As1H0.4O0.6,43.1
Ba1Fe1.9Ni0.1As2,20.0
Fe1.02Te0.5Se0.5,13.6
Fe1.02Te0.5Se0.4S0.1,13.0
Fe1.02Te0.5Se0.3S0.2,11.64
Fe1.02Te0.5Se0.2S0.3,10.16
Fe1.02Te0.5Se0.1S0.4,8.45
Eu1Sr2Ta0.8Sn0.2O8-z,40.0
Sm1Sr2Ta0.8Sn0.2O8-z,30.0
Sm1Fe1As1F0.25O0.7,49.6
Ba0.9Rb0.1Fe2As2,23.3
Fe1Se0.4Te0.6,14.2
Sm1Fe1As1F0.12O0.88,49.35
Sm1Fe1As0.95P0.05F0.12O0.88,46.8
Sm1Fe1As0.9P0.1F0.12O0.88,36.35
Sm1Fe1As0.85P0.15F0.12O0.88,17.8
Sm1Fe1As0.8P0.2F0.12O0.88,15.6
Ce0.6Nd0.4F0.5Bi1S2O0.5,3.0
Ce0.5Nd0.5F0.5Bi1S2O0.5,3.46
Ce0.4Nd0.6F0.5Bi1S2O0.5,3.94
Ce0.3Nd0.7F0.5Bi1S2O0.5,4.07
Ce0.2Nd0.8F0.5Bi1S2O0.5,4.42
Ce0.1Nd0.9F0.5Bi1S2O0.5,4.68
Nd1F0.5Bi1S2O0.5,4.79
K0.8Fe1.97Mn0.03Se2,37.4
K0.8Fe1.97Mn0.03Se2,42.2
Ba8Si44Al2,5.85
Ba8Si43Al3,5.75
Ba8Si41Al5,6.0
Ba8Si40Al6,5.6
Ba8Si39Al7,4.0
Ba8Si38Al8,3.0
Fe1Sr2Y1Cu2O7.51,53.5
Fe1Sr2Eu1Cu2O7.51,22.0
Fe1Sr2Gd1Cu2O7.58,36.5
Fe1Sr2Nd1Cu2O7.54,4.2
Fe1Sr2Er1Cu2O7.5,52.0
Dy1Ni2B2C1,6.3
Sn0.776Pb0.194In0.03Te1,2.25
Sn0.768Pb0.192In0.04Te1,2.57
Sn0.576Pb0.384In0.04Te1,0.4
Sn0.9025Pb0.0475In0.05Te1,1.79
Sn0.8549Pb0.0951In0.05Te1,2.06
Sn0.8075Pb0.1425In0.05Te1,2.81
Sn0.7598Pb0.1902In0.05Te1,2.77
Sn0.7127Pb0.2373In0.05Te1,2.62
Sn0.6646Pb0.2854In0.05Te1,2.28
Sn0.6175Pb0.3325In0.05Te1,1.6
Sn0.57Pb0.38In0.05Te1,0.703
Sn0.92In0.08Te1,1.35
Sn0.736Pb0.184In0.08Te1,2.82
Sn0.552Pb0.368In0.08Te1,2.16
Sn0.8798Pb0.0002In0.12Te1,1.76
Sn0.704Pb0.176In0.12Te1,2.98
Sn0.5277Pb0.3523In0.12Te1,3.58
Sn0.84In0.16Te1,2.13
Sn0.6723Pb0.1677In0.16Te1,3.11
Sn0.5883Pb0.2517In0.16Te1,3.88
Sn0.504Pb0.336In0.16Te1,4.01
Sn0.4197Pb0.4203In0.16Te1,4.18
Sn0.3361Pb0.5039In0.16Te1,2.49
Sn0.6001Pb0.1999In0.2Te1,3.59
Sn0.56Pb0.24In0.2Te1,3.87
Sn0.4797Pb0.3203In0.2Te1,4.16
Sn0.3997Pb0.4003In0.2Te1,4.23
Sn0.32Pb0.48In0.2Te1,3.35
Eu1Pt1Si3,3.7
La1Ir1Si3,1.45
La0.95Y0.05F0.5Bi1S2O0.5,2.5
La0.75Y0.25F0.5Bi1S2O0.5,3.1
Bi2Se3,8.2
Y1Ba2Cu3O6.98,89.6
Y1Ba2Cu3O6.98,89.5
Y1Ba2Cu3O6.8,77.1
Y1Ba2Cu3O6.8,83.2
Y1Ba2Cu3O6.66,58.9
Y1Ba2Cu3O6.66,62.6
Y1Ba2Cu3O6.45,45.4
Y1Ba2Cu3O6.45,49.5
Pr1Bi1S2F0.5O0.5,3.7
Ba1Fe1.84Co0.16As2,26.3
Mo1O2-z,12.0
Ca1Fe0.9Co0.1As1F1,22.0
Ca0.9Pr0.1Fe1.3As1.8O0.2,20.0
Ca0.9Pr0.1Fe1As2,20.0
Sr0.8La0.2Fe1As1F1,24.4
Lu1Sn1Ge1,0.57
La1Bi1S2F0.5O0.5,2.5
La1Bi1S2F0.5O0.5,10.7
Ca0.88La0.12Fe1As1.8Sb0.2,47.2
Ca0.85La0.15Fe1As1.98Sb0.02,43.0
Ca0.85La0.15Fe1As2,35.1
Ca0.84La0.16Fe1As2,34.0
Ca0.81La0.19Fe1As2,28.1
Ca0.79La0.21Fe1As2,28.0
Ca0.78La0.22Fe1As2,21.8
Ca0.84Ce0.16Fe1As1.98Sb0.02,21.0
Ca0.76Ce0.24Fe1As1.8Sb0.2,43.0
Ca0.8Pr0.2Fe1As2,10.0
Ca0.82Pr0.18Fe1As1.98Sb0.02,26.0
Ca0.76Pr0.24Fe1As0.9Sb0.1,43.0
Ca0.81Nd0.19Fe1As2,11.0
Ca0.81Nd0.19Fe1As1.98Sb0.02,24.0
Ca0.84Nd0.16Fe1As0.9Sb0.1,43.0
Li2Ir1Si3,3.8
Sr1Fe2As1.4P0.6,27.9
Sr1Fe2As1.3P0.7,29.6
Sr1Fe2As1.22P0.78,24.9
Sr1Fe2As1.08P0.92,19.2
Sr1Fe2As1P1,3.69
Sr1Fe2As1.4P0.6,33.9
Sr1Fe2As1.3P0.7,34.0
Sr1Fe2As1.22P0.78,29.8
Sr1Fe2As1.08P0.92,26.8
Sr1Fe2As1P1,14.5
Sr1Fe2As0.8P1.2,6.26
Au0.64Ge0.22Yb0.14,0.655
Au0.635Ge0.205Yb0.16,0.325
La1Bi1S2F0.5O0.5,2.49
La1Bi1S1.8Se0.2F0.5O0.5,2.19
La1Bi1S1.6Se0.4F0.5O0.5,2.5
La1Bi1S1.4Se0.6F0.5O0.5,3.0
La1Bi1S1.2Se0.8F0.5O0.5,3.7
La1Bi1S1Se1F0.5O0.5,3.78
La1Bi1S0.8Se1.2F0.5O0.5,3.6
La1Bi1S0.6Se1.4F0.5O0.5,3.01
Ce1Bi1S2F0.7O0.3,2.68
Ce0.8Nd0.2Bi1S2F0.7O0.3,3.145
Ce0.6Nd0.4Bi1S2F0.7O0.3,3.256
Ce0.4Nd0.6Bi1S2F0.7O0.3,3.67
Ce0.2Nd0.8Bi1S2F0.7O0.3,4.31
Nd1Bi1S2F0.7O0.3,4.75
Nd0.8Sm0.2Bi1S2F0.7O0.3,4.65
Nd0.6Sm0.4Bi1S2F0.7O0.3,4.58
Ce0.6Nd0.4Bi1S2F0.5O0.5,3.0
Ce0.5Nd0.5Bi1S2F0.5O0.5,3.48
Ce0.4Nd0.6Bi1S2F0.5O0.5,3.93
Ce0.3Nd0.7Bi1S2F0.5O0.5,4.07
Ce0.2Nd0.8Bi1S2F0.5O0.5,4.48
Ce0.1Nd0.9Bi1S2F0.5O0.5,4.68
Nd1Bi1S2F0.5O0.5,4.78
Nd0.8Sm0.2Bi1S2F0.5O0.5,5.11
Nd0.6Sm0.4Bi1S2F0.5O0.5,5.32
Nd0.4Sm0.6Bi1S2F0.5O0.5,5.51
Ce0.2Nd0.8Bi1S2F0.3O0.7,2.33
Nd1Bi1S2F0.3O0.7,3.55
Nd0.8Sm0.2Bi1S2F0.3O0.7,4.9
Nd0.6Sm0.4Bi1S2F0.3O0.7,5.19
Nd0.4Sm0.6Bi1S2F0.3O0.7,5.38
Nd0.2Sm0.8Bi1S2F0.3O0.7,5.58
Ca1Fe0.93Co0.07As1H1,23.0
Ca1Fe0.91Co0.09As1H1,22.7
Ca1Fe0.88Co0.12As1H1,23.2
Ca1Fe0.83Co0.17As1H1,19.0
Ca1Fe0.78Co0.22As1H1,13.3
Ca1Fe0.74Co0.26As1H1,8.95
K0.5Na0.24Fe1.52Se2,20.0
Pr1.87Ce0.13Cu1O4,8.8
Pr1.86Ce0.14Cu1O4,17.7
Pr1.83Ce0.17Cu1O4,13.4
Eu1Bi1S2F1,0.3
La1Bi1Se2F0.5O0.5,3.43
La1Bi1Se2F0.5O0.5,3.57
La1.25Ba1.65Ca0.1Cu3O7.15,57.3
La1.25Ba1.55Ca0.2Cu3O7.16,68.5
La1.25Ba1.45Ca0.3Cu3O7.15,75.2
La1.25Ba1.35Ca0.4Cu3O7.16,79.8
Ba0.81K0.19Fe2As2,14.0
Ba0.81K0.19Fe2As2,9.2
Ba0.74K0.26Fe2As2,32.0
Ba0.68K0.32Fe2As2,37.0
Ba0.64K0.34Fe2As2,39.0
Ba2Ti2Fe2As4O1,21.5
Li0.8Fe1.2Se1H1O1,40.9
Li0.8Fe1.2Se0.84S0.16H1O1,38.6
Li0.8Fe1.2Se0.78S0.22H1O1,35.6
Li0.8Fe1.2Se0.72S0.28H1O1,35.0
Li0.8Fe1.2Se0.59S0.41H1O1,32.0
Li0.8Fe1.2Se0.47S0.53H1O1,24.2
Li0.8Fe1.2Se0.34S0.66H1O1,18.4
Li0.8Fe1.2Se0.23S0.77H1O1,11.0
Eu3Bi2S4F4,1.45
Ce1Bi1S2F0.7O0.3,4.5
Sr0.5Ce0.5Bi1S2F1,2.8
Ba1Pt2Sb2,1.835
Rb2Cr3As3,4.8
K2Cr3As3,6.1
U2Pt0.9Rh0.1C2,1.09
U2Pt0.95Rh0.05C2,1.41
U2Pt1C2,1.45
Pd2Hf1Al1,3.55
Sr1Ti1O3-d,0.085
Sr1Ti1O3-d,0.175
Sr1Ti1O3-d,0.201
Sr0.9978Ca0.0022Ti1O3-d,0.067
Sr0.9978Ca0.0022Ti1O3-d,0.132
Sr0.9978Ca0.0022Ti1O3-d,0.182
Sr1Pt2As2,5.2
Gd1Fe1As1H0.1O0.9,56.2
Sm1Fe1As1H0.25O0.75,55.0
Ce1Fe1As1H0.21O0.79,48.0
La1Fe1As1H0.36O0.64,36.0
La1Fe1As1H0.44O0.56,21.0
La0.9Sm0.1Bi1S2F0.5O0.5,2.93
La0.7Sm0.3Bi1S2F0.5O0.5,3.11
La0.6Sm0.4Bi1S2F0.5O0.5,3.26
La0.5Sm0.5Bi1S2F0.5O0.5,4.05
La0.4Sm0.6Bi1S2F0.5O0.5,4.21
La0.3Sm0.7Bi1S2F0.5O0.5,5.14
La0.2Sm0.8Bi1S2F0.5O0.5,5.42
Eu1Fe1.72Ir0.28As2,21.5
Ce1Au2Si2,2.55
Ce1Au2Si2,1.15
Nb2Pd1S5,6.0
Ta4Pd3Te16,4.3
Bi3S3O2,4.1
Ce1Ni0.86Bi2,4.1
La1Ni0.72Bi2,4.05
La1Pd0.8Sb2,3.25
La1Pd0.8Bi2,2.865
Fe1Se0.96S0.04,9.58
Fe1Se0.91S0.09,10.1
Fe1Se0.89S0.11,10.7
Ir0.91Se2,6.45
Ir0.77Se2,3.5
Ir0.93Te2,4.7
Ca9La1Pt3Fe10As18,27.9
Ca8.87La1.13Pt3Fe10As18,32.8
Ca8.85La1.15Pt3Fe10As18,35.1
Ca8.6La1.4Pt3Fe10As18,34.5
Ca8.44La1.56Pt3Fe10As18,32.3
Ca7.62La2.38Pt3Fe10As18,26.0
Ca9.26Ce0.74Pt3Fe10As18,22.6
Ca8.38Ce1.62Pt3Fe10As18,30.5
Ca8.32Ce1.68Pt3Fe10As18,30.4
Ca7.16Ce2.84Pt3Fe10As18,18.9
Ca9.39Pr0.61Pt3Fe10As18,19.5
Ca8.77Pr1.23Pt3Fe10As18,26.9
Ca8.48Pr1.52Pt3Fe10As18,31.8
Ca8.03Pr1.97Pt3Fe10As18,25.0
Ca6.85Pr3.15Pt3Fe10As18,20.5
Ca8.77Nd1.23Pt3Fe10As18,28.4
Ca8.41Nd1.59Pt3Fe10As18,28.1
Ca7.65Nd2.35Pt3Fe10As18,18.9
Ca9.29Sm0.71Pt3Fe10As18,26.2
Ca8.45Sm1.55Pt3Fe10As18,28.0
Ca9.06Gd0.94Pt3Fe10As18,25.0
Ca9.16Tb0.84Pt3Fe10As18,23.7
Ca9.35Dy0.65Pt3Fe10As18,20.9
Ca9.68Ho0.32Pt3Fe10As18,19.5
Ca9.75Er0.25Pt3Fe10As18,17.6
Ca9.72Tm0.28Pt3Fe10As18,14.8
Ca9.5Yb0.5Pt3Fe10As18,11.6
Ca9.75Lu0.25Pt3Fe10As18,10.9
Ca9.58Y0.42Pt3Fe10As18,18.6
Ce1Bi1S2F0.45O0.55,2.295
Ce1Bi1S2F0.7O0.3,2.92
Ce1Bi1S2F0.6O0.4,4.46
Ce1Bi1S2F0.9O0.1,6.855
Ce1Bi1S2F0.4O0.6,2.85
Ga1Nb3,16.5
Ba0.9Yb0.1Fe2As2,20.0
La1Rh2Si2,1.1
La1Ir2Si2,1.1
La1Ir2Si2,1.55
La1Pt2Si2,1.365
Y1Ru2Si2,1.1
Y1Rh2Si2,1.1
Y1Pd2Si2,1.1
Y1Os2Si2,1.1
Y1Ir2Si2,1.1
Y1Ir2Si2,2.775
Y1Pt2Si2,1.64
Th1Ru2Si2,1.1
Th1Rh2Si2,1.1
Th1Pd2Si2,1.1
Th1Os2Si2,1.1
Th1Ir2Si2,2.215
Th1Pt2Si2,1.1
U1Rh2Si2,1.1
U1Ir2Si2,1.1
Th1Ru2Ge2,1.1
Th1Rh2Ge2,1.1
Th1Pd2Ge2,1.1
Th1Os2Ge2,1.1
Th1Ir2Ge2,1.51
Th1Pt2Ge2,1.1
U1Rh2Ge2,1.1
U1Ir2Ge2,1.1
Pb0.19Sn0.76In0.05Te1,2.76
Pb0.18Sn0.74In0.08Te1,2.85
Pb0.35Sn0.53In0.12Te1,3.5
Pb0.43Sn0.43In0.16Te1,4.17
Pb0.4Sn0.4In0.2Te1,4.24
H2S1,60.0
D2S1,30.0
La1Ni1B1N1,3.92
La1Pt1B1N1,6.7
La3Ni2B2N3,14.9
Ca1Ni1B1N1,2.08
Bi3S3O2,4.5
Bi12S11O18,4.0
Ir0.94Se2,6.24
Ir0.85Rh0.09Se2,7.61
Ir0.82Rh0.12Se2,7.96
Ir0.76Rh0.18Se2,8.09
Ir0.64Rh0.3Se2,8.77
Ir0.58Rh0.36Se2,9.6
Ir0.44Rh0.5Se2,9.24
Ir0.37Rh0.57Se2,9.09
Ir0.3Rh0.64Se2,8.39
Ir0.19Rh0.75Se2,7.49
Rh0.94Se2,5.19
Ba2Ti2Fe2As4O1,18.75
Ta4Pd3Te16,4.46
Eu3Bi2S4F4,1.4
Ca1Fe1As1F0.8H0.2,29.0
Ca0.85La0.15Fe1As2,16.2
Ca0.85Pr0.15Fe1As2,21.0
Ca0.85Nd0.15Fe1As2,14.0
Ca0.85Sm0.15Fe1As2,17.6
Ca0.85Eu0.15Fe1As2,12.2
Ca0.85Gd0.15Fe1As2,19.5
C0.681Mo1,12.0
La1Bi1Se2F0.5O0.5,3.48
Sr1Au1Si3,1.65
K0.08Zr1N1Cl1,13.0
K0.08M1Zr1N1Cl1,15.0
K0.26Zr1N1Cl1,11.5
K0.26M1Zr1N1Cl1,11.5
Nb1Si1As1,8.2
La3Ru8B6,3.15
Mg4Al1Si3,5.2
Mg1.4Al0.6Si1,6.0
Ca1Al1Si1,2.6
Ca1Al0.74Si1.26,2.46
La1Ni1Sb2,1.0
La1Cu1Sb2,0.9
La1Pd1Sb2,2.7
La1Pd2As2,0.97
K0.05Mo1O2-z,9.5
K0.3Mo1O2-z,4.0
M0.23Ti1N1Cl1,10.5
M1Ti1N1Cl1,3.8
M1Ti1N1Cl1,6.8
M1Ti1N1Cl1,10.5
M1Ti1N1Cl1,15.5
M1Ti1N1Cl1,7.0
M1Ti1N1Cl1,15.2
M1Ti1N1Cl1,17.1
M1Ti1N1Cl1,16.0
M1Ti1N1Cl1,16.4
M1Ti1N1Cl1,8.6
La1Bi1Se2F0.5O0.5,2.6
Eu1Fe1.6As2P0.4,23.5
Eu1Fe1.4As2P0.6,28.7
Eu1Fe1.2As2P0.8,21.5
Eu1Fe1.78Ir0.22As2,21.0
Eu1Fe1.72Ir0.28As2,21.6
La1Fe1As1F0.08O0.9,25.9
La1Fe0.991Zn0.009As1F0.08O0.9,15.6
La1Fe0.985Zn0.015As1F0.08O0.9,0.2
La1Fe1As1F0.28O0.68,33.5
La1Fe0.982Zn0.018As1F0.28O0.68,19.6
La1Fe0.973Zn0.027As1F0.28O0.68,12.2
La1Fe0.951Zn0.049As1F0.28O0.68,1.0
La1Fe0.918Zn0.082As1F0.28O0.68,8.2
La1Fe0.905Zn0.095As1F0.28O0.68,3.5
Ir0.9Rh0.1Te2,2.61
Ir0.85Rh0.15Te2,2.39
Ir0.7Rh0.3Te2,2.09
Ca0.84La0.16Fe1As1.99P0.01,41.0
Ca0.82La0.18Fe1As1.99P0.01,39.0
Ca0.77La0.23Fe1As1.99P0.01,28.0
Ca0.85La0.15Fe1As2,35.0
Ca0.81La0.19Fe1As2,28.0
Ca0.78La0.22Fe1As2,22.0
Sr0.5Ce0.5F1Bi1S2,2.7
La0.6Sm0.4Bi1S2F0.5O0.5,3.25
La0.4Sm0.6Bi1S2F0.5O0.5,4.2
La0.3Sm0.7Bi1S2F0.5O0.5,5.1
La0.2Sm0.8Bi1S2F0.5O0.5,5.44
La0.1Sm0.9Bi1S2F0.5O0.5,5.2
Y1Ba2Cu3O6.45,45.0
Y1Ba2Cu3O6.8,78.5
Y1Ba2Cu4O6.998,90.5
Y1Ba2Cu3O8,80.0
Y1Ba1.972Ba0.028Cu3O7-z,87.0
Tl2Ba2Cu1O6,59.0
Tl2Ba2Cu1O6,33.0
Tl2Ba2Cu1O6,20.0
Na0.65Fe1.93Se2,37.5
Na0.65Fe1.93Se1.8S0.2,36.0
Na0.65Fe1.93Se1.6S0.4,32.0
Na0.65Fe1.93Se1.4S0.6,25.1
Na0.8M0.6Fe1.86Se2,45.2
Na0.8M0.6Fe1.86Se1.8S0.2,43.7
Na0.8M0.6Fe1.86Se1.6S0.4,42.2
Na0.8M0.6Fe1.86Se1.4S0.6,39.2
Na0.8M0.6Fe1.86Se1.2S0.8,35.3
Na0.8M0.6Fe1.86Se1S1,25.3
Cs3C60,38.0
La1Fe1As1F0.05O0.95,20.0
La1Fe1As1F0.075O0.925,21.2
La1Fe1As1F0.1O0.9,25.1
La1Fe1As1F0.15O0.85,10.5
La1Fe1As1F0.2O0.8,11.1
Li0.8Fe1.2Se1H1O1,40.0
Ba0.91Ce0.09Fe2As2,4.12
Ba0.85Ce0.15Fe2As2,13.4
Ba0.88La0.12Fe2As2,22.4
Ba0.82Pr0.18Fe2As2,6.2
Ba0.87Nd0.13Fe2As2,4.76
La1Ni1Bi1O1,5.5
K0.05Mo1O1.63,7.25
Ce1Fe1As1F0.05O0.95,11.9
Ce1Fe1As0.85P0.15F0.05O0.95,21.7
Ce1Fe1As0.7P0.3F0.05O0.95,18.1
Ce1Fe1As0.55P0.45F0.05O0.95,15.0
Ce1Fe1As0.47P0.53F0.05O0.95,5.84
Sm1Fe1As1H0.03O0.97,0.2
Sm1Fe1As1H0.19O0.81,55.3
Sm1Fe1As1H0.34O0.64,51.8
Sm1Fe1As1H0.43O0.57,45.0
Sm1Fe1As1F0.06O0.94,36.4
Ba0.91La0.09Fe2As2,7.76
Ba0.86La0.14Fe2As2,22.7
Ba0.82La0.18Fe2As2,14.8
Ba0.76La0.24Fe2As2,5.02
Sr0.5La0.5Bi1S2F1,2.8
Sr1Pt2As2,4.6
Y1Ba2Cu3O6.5,54.1
Y1Ba2Cu3O6.67,60.6
Y1Ba2Cu3O6.75,75.3
Ce1Fe0.98Co0.02As1H1,2.0
Ce1Fe0.96Co0.04As1H1,2.0
Ce1Fe0.93Co0.07As1H1,23.0
Ce1Fe0.91Co0.09As1H1,23.0
Ce1Fe0.88Co0.12As1H1,23.0
Ce1Fe0.83Co0.17As1H1,19.5
Ce1Fe0.78Co0.22As1H1,13.5
Ce1Fe0.74Co0.26As1H1,10.0
Sm1Fe1As1H0.22O0.78,50.0
Sm1Fe1As0.77P0.23H0.11O0.89,28.0
Sm1Fe1As0.77P0.23H0.2O0.8,36.0
Sm1Fe1As0.55P0.45H0.08O0.92,19.0
Sm1Fe1As0.55P0.45H0.16O0.84,11.0
Sm1Fe1As0.55P0.45H0.26O0.74,17.0
Sm1Fe1As0.47P0.53H0.09O0.91,10.5
Sm1Fe1As0.47P0.53H0.24O0.76,5.5
K1Fe2As2,3.5
Rb1Fe2As2,2.5
Cs1Fe2As2,1.8
La1Ni0.65Bi2,4.0
Ce1Ni0.8Bi2,4.1
Nd1Ni0.89Bi2,4.1
Y1Ni0.82Bi2,4.1
Ba1Ni2As2,0.575
Ba1Ni2As1.972P0.028,0.634
Ba1Ni2As1.902P0.098,0.763
Ba1Ni2As1.846P0.154,3.28
Ba1Ni2As1.816P0.184,3.27
Ba1Ni2As1.792P0.208,3.24
Ce1Au2Si2,2.455
Bi3S3O3,5.1
Ca10Ir4Fe10As18,16.0
Ce1Bi1S2F0.5O0.5,2.45
Ce1Bi1S2F0.5O0.5,7.62
Fe1Te0.8S0.2,7.9
La1Ni1As1H0.08O0.92,3.76
La1Ni1As1H0.17O0.83,3.68
Pr1Ni1As1H0.06O0.94,1.6
Eu0.16M1Zr1N1Cl1,12.7
Yb0.31M1Zr1N1Cl1,12.5
Eu0.08M1Hf1N1Cl1,24.3
Eu0.13M1Hf1N1Cl1,24.1
Yb0.11M1Hf1N1Cl1,23.0
Eu0.13M1Hf1N1Cl1,25.8
Eu0.13M1Hf1N1Cl1,25.6
Ba0.33Hf1N1Cl1,20.2
Sr0.33Hf1N1Cl1,20.3
Ca0.4M1Hf1N1Cl1,22.4
Ca0.29M1Hf1N1Cl1,22.7
Ca0.24M1Hf1N1Cl1,22.8
Ca0.11M1Hf1N1Cl1,23.3
Sr0.09M1Hf1N1Cl1,24.1
Sr0.24M1Hf1N1Cl1,24.1
Ba0.1M1Hf1N1Cl1,24.5
Ba0.1M1Hf1N1Cl1,25.7
Ca0.11M1Hf1N1Cl1,26.0
Sr0.24M1Hf1N1Cl1,25.6
Ca0.11M1Hf1N1Cl1,25.6
Sr0.24M1Hf1N1Cl1,25.1
K0.21Ti1N1Br1,17.2
Na0.23Ti1N1Br1,15.2
Rb0.22Ti1N1Br1,16.3
Li0.37M1Ti1N1Br1,7.5
Na0.23M1Ti1N1Br1,11.0
Na0.23M1Ti1N1Br1,8.6
K0.46Ti1N1Br1,16.3
Zr2Ru3Si4,5.7
Ca2In1N1,0.6
Eu1Fe1.72Ir0.28As2,21.9
Th0.93Zr0.07B12,5.5
Ca1Si3,4.25
Si3Y1,4.63
Lu1Si3,6.78
Zn0.04Zr1N1Cl1,15.0
Zn0.035Zr1N1Br1,14.0
Mg4Ni6B2,4.0
Mg1Al1Si1,6.0
Ba0.82K0.18Bi0.53Pb0.47,22.8
Au64Ge22Yb14,0.68
Au63.5Ge20.5Yb16,0.36
Ce0.2Nd0.8F0.3Bi1S2O0.7,2.35
Nd1F0.3Bi1S2O0.7,3.52
Ce0.6Nd0.4F0.5Bi1S2O0.5,2.98
Ce0.2Nd0.8F0.5Bi1S2O0.5,4.46
Nd1F0.5Bi1S2O0.5,4.78
Ce1F0.7Bi1S2O0.7,2.68
Ce0.6Nd0.4F0.7Bi1S2O0.7,3.25
Ce0.2Nd0.8F0.7Bi1S2O0.7,4.29
Nd1F0.7Bi1S2O0.7,4.78
Nd0.8Sm0.2F0.3Bi1S2O0.7,4.9
Nd0.6Sm0.4F0.3Bi1S2O0.7,5.21
Nd0.2Sm0.8F0.3Bi1S2O0.7,5.58
Nd0.8Sm0.2F0.3Bi1S2O0.5,5.1
Nd0.8Sm0.2F0.3Bi1S2O0.5,5.3
Nd0.6Sm0.4F0.3Bi1S2O0.5,5.52
Nd0.4Sm0.6F0.3Bi1S2O0.7,4.66
Nd0.8Sm0.2F0.3Bi1S2O0.7,4.59
Ru1Sr2Gd1Cu2Oz,33.1
Ru0.97Re0.03Sr2Gd1Cu2Oz,9.96
Ru0.94Re0.06Sr2Gd1Cu2Oz,9.86
K1Fe2As2,3.075
K1Fe1.932Co0.068As2,1.845
B6Y1,7.5
B6Y1,5.9
Ca10Ir4Fe10As18,18.7
Li0.8Fe1.2H1Se1,34.0
Eu1Fe2As1.4P0.6,10.0
Mg1Pt1Si1,2.5
Mg1Pt0.5Au0.5Si1,2.9
Li1Fe2Se2,44.0
Na1Fe2Se2,46.0
K1Fe2Se2,40.0
Ca0.5Fe2Se2,40.0
Sr0.8Fe2Se2,38.0
Ba0.8Fe2Se2,39.0
Eu1Fe2Se2,40.0
Yb0.8Fe2Se2,42.0
Ba1Fe1.48Ru0.52As2,21.2
Ba1Fe1.3Ru0.7As2,20.0
Ba1Fe1.58Ru0.42As2,19.2
Sr0.5Ce0.5F1Bi1S2,2.81
La1Si5,11.4
La1Si10,6.7
Sn0.8In0.2Te1,3.1
Sn0.8In0.2Te0.95Se0.05,3.3
Sn0.8In0.2Te0.9Se0.1,3.7
Sn0.8In0.2Te0.85Se0.15,3.9
Sn0.8In0.2Te0.8Se0.2,3.8
Sn0.8In0.2Te0.75Se0.25,3.7
Sn0.8In0.2Te0.7Se0.3,3.5
Cs1Pb0.3Bi3.7Te6,2.9
Cs1Pb1Bi3Te6,2.7
Ba1Ge3,4.0
Ca1Ge3,6.8
Nb0.8Ti0.1Sr2Eu1Cu2.1Oz,28.0
Nb0.7Ti0.1Sr2Eu1Cu2.2Oz,30.0
Nb0.5Ti0.1Sr2Eu1Cu2.4Oz,30.0
La3Co1Ru3Sn13,5.0
La3Co3.5Ru0.5Sn13,2.41
La3Co2Ru2Sn13,4.0
La3Rh2Sn13,3.0
La3Co2Sn13,1.95
La3Ru2Sn13,1.58
Fe1Te0.88S0.12,6.8
Fe1Te0.8Se0.1S0.1,6.6
Fe1Te0.69Se0.25S0.06,11.3
Fe1Te0.65Se0.3S0.05,12.2
Fe1Te0.58Se0.4S0.02,13.1
Fe1Te0.54Se0.45S0.01,13.3
Fe1Te0.5Se0.5,14.3
Mg0.3M1Zr1N1Cl1,15.0
Ce1Co1In5,2.29
Ce1Co1In4.875Zn0.125,2.14
Ce1Co1In4.75Zn0.25,1.82
Ce1Co1In7.65Zn0.35,1.78
La1Fe1As0.7P0.3O1,10.6
La1Fe1As0.6P0.4O1,7.73
La1Fe1As0.6P0.4O1,4.8
Fe1Se0.4Te0.6,13.8
Fe1Se0.3Te0.7,13.7
Fe1Se0.2Te0.8,13.0
Fe1Se0.1Te0.9,11.0
Li1.25M0.64Fe2.05Se2,38.0
La1Bi1Se2F0.5O0.5,3.4
Pr1Ir2Zn20,0.07
Pr0.73La0.27Ir2Zn20,0.093
Pr0.25La0.75Ir2Zn20,0.28
Pr0.96La0.04Ir2Zn20,0.07
La1Ir2Zn20,0.58
Ca0.8La0.2Fe0.978Co0.022As2,37.8
Ca0.8La0.2Fe0.9671Co0.0329As2,36.5
Ca0.8La0.2Fe0.9558Co0.0442As2,35.1
Bi2S2F0.5O0.5,5.1
Bi2S2F0.5O0.5,4.9
Bi2S2F0.1O0.9,2.92
Bi2S2F0.1O0.9,4.43
La1Bi1Se1S1F0.5O0.5,3.6
La1Bi1Se1S1F0.5,5.24
N0.7V1,2.03
N0.8V1,4.54
N1V1,8.32
Eu1Bi1S2F1,8.2
Ce1Fe1As1F0.08O0.92,27.6
Ce1Fe1As1F0.1O0.9,32.8
Ce1Fe1As1F0.16O0.84,40.7
La1Bi1S2F0.5O0.5,2.1
Pr1Bi1S2F0.5O0.5,3.2
Nd1Bi1S2F0.5O0.5,4.2
Mg0.16Zr1N1Cl1,15.0
Mg0.3Hf1N1Cl1,25.0
Na0.3M1Fe2Se2,43.0