composition,critical_temperature_tc
Y1Ba2Cu3OZ,45.0
Y1Ba2Cu3OZ,42.0
Bi2Sr2Ca0.6Pr0.4Cu2OZ,25.0
Bi2Sr2Ca0.7Pr0.3Cu2OZ,74.0
Bi2Sr2Ca0.9Pr0.1Cu2OZ,77.0
Bi2Sr1.95La0.05Cu1OZ,13.0
Bi2Sr1.95La0.05Cu1OZ,14.0
Y1Ba2Cu3O6.9,93.8
Hg1Ba2Cu1OZ,89.0
Hg1Ba2Cu1OZ,75.0
Bi2Sr2Ca1Cu2O8.2135,70.0
Bi2Sr2Ca1Cu2O8.224,89.0
Bi2Sr2Ca1Cu2O8.245,90.0
Y1Ba2Cu3O6.9,93.6
Y1Ba2Cu2.982Zn0.018O6.9,89.2
Y1Ba2Cu2.94Zn0.06O6.9,80.0
Y1Ba2Cu2.91Zn0.09O6.9,74.6
Hg1Ba2Cu1O4,61.0
Hg1Ba2Cu1O4,97.0
Hg1Ba2Cu1O4,80.0
Pr1Ba2Cu3OZ,80.0
Bi2Sr2Ca1Cu1.98Ni0.02O8,78.0
Bi2Sr2Ca1Cu1.97Ni0.03O8,77.0
Bi2Sr2Ca1Cu1.952Ni0.048O8,74.0
Y1Ba2Cu3O6.91,92.0
Y0.9Ca0.1Ba2Cu3O6.91,78.0
Sr3.5Ca11.5Cu24O41,9.0
Pr1.87Ce0.13Cu1OZ,12.0
Pr1.86Ce0.13Cu1OZ,20.0
Pr1.85Ce0.14Cu1OZ,21.0
Pr1.83Ce0.15Cu1OZ,15.0
Pr1.8Ce0.17Cu1OZ,10.0
Pr1.84Ce0.16Cu1OZ,16.0
Pr1.82Ce0.18Cu1OZ,13.0
Tm1Ba2Cu3O6.41,19.0
Tm1Ba2Cu3O6.44,28.0
Tm1Ba2Cu3O6.49,50.0
Bi2Sr1.75La0.25Cu1OZ,27.0
Y1Ba2Cu3O7,87.8
Y1Ba2Cu3O6.98,90.3
Y1Ba2Cu3O6.96,91.8
Y1Ba2Cu3O6.94,93.5
Y1Ba2Cu3O6.91,95.2
Y1Ba2Cu3O6.87,95.2
Y1Ba2Cu3O6.82,89.9
Bi2Sr2Ca1Cu2OZ,88.4
Bi2Sr1.5La0.5Cu1OZ,8.2
La1.93Sr0.07Cu1O4,19.0
La1.91Sr0.09Cu1O4,29.0
La1.885Sr0.115Cu1O4,31.0
La1.875Sr0.125Cu1O4,31.0
La1.865Sr0.135Cu1O4,35.0
Bi2Sr2Ca1Cu2OZ,87.1
Bi2Sr2Ca1Cu2OZ,62.0
Bi2Sr2Ca1Cu2OZ,70.0
Nd1.85Ce0.15Cu1OZ,24.0
La1.842Nd0.008Sr0.036Ba0.114Cu1O3.98,31.7
La1.776Nd0.074Sr0.014Ba0.136Cu1O4.03,30.0
La1.736Nd0.116Ba0.15Cu1O4.03,29.0
La1.85Sr0.15Cu1O4.01,36.0
La1.85Sr0.12Ca0.016Ba0.014Cu1O3.99,34.1
La1.85Sr0.09Ca0.034Ba0.026Cu1O3.99,32.2
La1.85Sr0.06Ca0.05Ba0.04Cu1O3.99,30.0
La1.85Sr0.016Ca0.074Ba0.06Cu1O4.01,25.4
La1.8Nd0.05Ca0.074Ba0.076Cu1O4.01,23.7
La1.75Nd0.1Ca0.064Ba0.086Cu1O4.03,20.6
La1.798Nd0.052Ca0.15Cu1O3.96,31.6
La1.736Nd0.114Ca0.138Ba0.012Cu1O4.02,29.4
La1.65Nd0.2Ca0.122Ba0.028Cu1O3.99,27.1
La1.562Nd0.288Ca0.106Ba0.044Cu1O3.98,23.0
Y1Ba2Cu2.97Li0.03O7-Z,86.0
Y1Ba2Cu2.94Li0.06O7-Z,78.0
Y1Ba2Cu2.79Li0.21O7-Z,53.0
Y1Ba2Cu2.97Li0.03O6.6,41.0
Y1Ba2Cu2.94Li0.06O6.6,26.0
La1.85Sr0.15Cu0.88Zn0.12OZ,35.2
La1.9Sr0.1Cu0.99Zn0.01O4,14.0
La1.9Sr0.1Cu0.98Zn0.02O4,2.0
Bi2Sr1.77La0.23Cu1OZ,29.5
Bi2Sr1.61La0.39Cu1OZ,37.0
Bi2Sr1.34La0.66Cu1OZ,23.0
Bi2Sr1.27La0.73Cu1OZ,14.0
Bi2Sr1.24La0.76Cu1OZ,13.0
Bi2Sr1.16La0.84Cu1OZ,3.0
Bi2Sr2Ca1Cu2O8.25,92.0
Bi2Sr2Ca1Cu2O8.26,90.0
Bi2Sr2Ca1Cu2O8.27,87.0
Bi2Sr2Ca1Cu2O8.28,80.0
Bi2Sr2Ca1Cu2O8.3,70.0
Pr1.85Ce0.15Cu1OZ,19.0
Pr1.85Ce0.15Cu1OZ,20.0
Nd1.665Gd0.185Ce0.15Cu1O4,19.0
Nd1.48Gd0.37Ce0.15Cu1O4,18.0
Nd1.295Gd0.555Ce0.15Cu1O4,17.0
Nd1.11Gd0.74Ce0.15Cu1O4,15.0
Nd0.925Gd0.925Ce0.15Cu1O4,13.0
Nd0.74Gd1.11Ce0.15Cu1O4,12.0
Sm1.7575Gd0.0925Ce0.15Cu1O4,15.0
Sm1.665Gd0.185Ce0.15Cu1O4,13.0
Sm1.48Gd0.37Ce0.15Cu1O4,10.5
Sm1.295Gd0.555Ce0.15Cu1O4,8.5
Eu1.7575Gd0.0925Ce0.15Cu1O4,4.7
Eu1.80375Gd0.04625Ce0.15Cu1O4,5.7
Eu1Ba2Cu3O6.9,94.0
Eu0.9Pr0.1Ba2Cu3O6.78,83.0
Eu0.8Pr0.2Ba2Cu3O6.7,65.0
Eu0.7Pr0.3Ba2Cu3O6.66,41.0
Eu1Ba1.9Pr0.1Cu3O6.75,73.0
Eu1Ba1.8Pr0.2Cu3O6.69,46.0
Eu0.6Pr0.4Ba1.7Sr0.3Cu3O6.93,28.0
Eu0.6Pr0.4Ba1.6Sr0.4Cu3O7,29.0
Eu0.6Pr0.4Ba1.5Sr0.5Cu3O6.89,34.0
Eu1Ba1.5Pr0.3Sr0.2Cu3O6.81,28.0
Eu1Ba1.4Pr0.3Sr0.3Cu3O6.92,29.0
Eu1Ba1.3Pr0.3Sr0.4Cu3O7,30.0
Eu1Ba1.2Pr0.3Sr0.5Cu3O6.89,32.0
Eu0.9Sr0.1Ba1.6Pr0.1Cu3O6.58,32.0
Eu0.8Sr0.2Ba1.6Pr0.1Cu3O6.78,51.0
Eu0.7Sr0.3Ba1.6Pr0.1Cu3O6.91,54.0
Eu0.6Sr0.4Ba1.6Pr0.1Cu3O7.06,50.0
Eu0.5Sr0.5Ba1.6Pr0.1Cu3O7.07,42.0
Y1Re0.05Ba2Cu2.95O6.94,88.0
Y1Re0.1Ba2Cu2.9O7,91.5
Y1Re0.15Ba2Cu2.85O7.07,91.5
Y1Re0.05Ba2Cu2.95O7.02,92.0
Y1Re0.1Ba2Cu2.9O7.08,90.0
Y1Re0.15Ba2Cu2.85O7.13,90.0
Y1Re0.05Ba2Cu2.95O7.04,92.0
Y1Re0.1Ba2Cu2.9O7.09,91.0
Y1Re0.15Ba2Cu2.85O7.17,91.0
K0.9La0.1Bi1O3,5.74
K0.85La0.15Bi1O3,10.25
K0.8La0.2Bi1O3,12.2
K0.75La0.25Bi1O3,12.2
K0.95Bi1.05O3,6.0
K0.9Bi1.1O3,6.5
K0.85Bi1.15O3,7.4
K0.8Bi1.2O3,8.7
K0.75Ca0.25Bi1O3,8.7
Rb1Bi1O3,11.0
Rb0.9Bi1.1O3,11.0
Rb0.7Bi1.3O3,11.0
Rb0.6Bi1.4O3,11.0
K1Bi1O3,10.2
K0.95Bi1.05O3,10.2
K0.9Bi1.1O3,10.2
K0.8Bi1.2O3,10.2
K1.1Bi1O3,8.8
Tl2Ba2Cu1O6,37.0
Hg1Ba2Cu1O4+z,98.0
Hg1Ba2Cu0.99Mg0.01O4+z,94.0
Hg1Ba2Cu0.98Mg0.02O4+z,89.0
Hg1Ba2Cu0.97Mg0.03O4+z,85.0
Hg1Ba2Cu0.99Zn0.01O4+z,89.0
Hg1Ba2Cu0.98Zn0.02O4+z,85.0
Hg1Ba2Cu0.97Zn0.03O4+z,78.0
Hg1Ba2Cu0.99Fe0.01O4+z,96.0
Hg1Ba2Cu0.98Fe0.02O4+z,96.0
Hg1Ba2Cu0.97Fe0.03O4+z,95.0
Hg1Ba2Cu0.99Co0.01O4+z,96.0
Hg1Ba2Cu0.98Co0.02O4+z,96.0
Hg1Ba2Cu0.97Co0.03O4+z,94.0
Hg1Ba2Cu0.99Ni0.01O4+z,96.0
Hg1Ba2Cu0.98Ni0.02O4+z,94.0
Hg1Ba2Cu0.97Ni0.03O4+z,95.0
Bi2Sr1.5La0.5Cu1O6+z,30.8
Bi2Sr1.5La0.5Cu0.995Zn0.005O6+z,22.6
Bi2Sr1.5La0.5Cu0.991Zn0.009O6+z,17.9
Bi2Sr1.5La0.5Cu0.984Zn0.016O6+z,10.4
Bi2Sr1.34La0.66Cu1O6+z,20.3
Bi2Sr1.34La0.66Cu0.995Zn0.005O6+z,11.4
Bi2Sr1.34La0.66Cu0.99Zn0.01O6+z,8.0
Y0.7Ca0.3Ba2Cu3O6.12,35.0
Eu0.7Ca0.3Ba2Cu3O6.13,26.0
La1Ba2Cu3O7-z,93.0
Ru1Sr2Gd1Cu2O8,30.0
Bi2Sr2Ca1Cu2O8+z,88.5
Bi2Sr2Ca0.9Gd0.1Cu2O8+z,90.9
Bi2Sr2Ca0.8Gd0.2Cu2O8+z,86.1
Bi2Sr2Ca1Cu2O8+z,81.1
Bi2Sr2Ca0.9Gd0.1Cu2O8+z,61.5
Bi2Sr2Ca0.8Gd0.2Cu2O8+z,47.0
Bi2Sr2Ca0.7Gd0.3Cu2O8+z,31.1
Bi2Sr2Ca0.6Gd0.4Cu2O8+z,13.3
Bi2Sr2Ca1Cu2O8+z,72.6
Bi2Sr2Ca0.9Gd0.1Cu2O8+z,73.3
Bi2Sr2Ca0.8Gd0.2Cu2O8+z,73.0
Bi2Sr2Ca0.7Gd0.3Cu2O8+z,71.5
Bi2Sr2Ca0.6Gd0.4Cu2O8+z,61.1
Bi2Sr2Ca0.55Gd0.45Cu2O8+z,50.4
Bi2Sr2Ca0.5Gd0.5Cu2O8+z,34.0
Bi2Sr2Ca0.45Gd0.55Cu2O8+z,24.0
Bi2Sr2Ca0.4Gd0.6Cu2O8+z,4.8
Y1Ba2Cu3Oz,92.87
Ca14Cu24O40.93,8.0
Sm0.5Eu0.5Ba2Cu3O7-z,95.0
Y1Ba2Cu3O7-z,91.26
Y1Ba2Cu2.97Mn0.03O7-z,91.47
Y1Ba2Cu2.955Mn0.045O7-z,91.24
Y1Ba2Cu2.94Mn0.06O7-z,91.01
Y1Ba2Cu2.925Mn0.075O7-z,90.75
Y1Ba2Cu2.895Mn0.105O7-z,90.53
Y1Ba2Cu2.85Mn0.15O7-z,89.37
La2Cu1O4+z,15.0
La2Cu1O4+z,41.0
Hg0.85Mo0.15Sr2Cu1O4,66.0
Hg0.75Mo0.25Sr2Cu1O4,50.0
Hg0.7Mo0.3Sr2Cu1O4,36.0
Hg0.64Cr0.36Sr2Cu1O4+z,55.0
Hg0.9Re0.1Sr2Cu1O4+z,54.0
La1.985Sr0.015Cu1O4.024,16.0
La1.985Sr0.015Cu1O4.032,26.0
Ru1Sr2Gd1Cu2O8,27.5
La1.7Nd0.3Ba2Ca0.6Cu4.6O7.135,77.0
La1.5Nd0.5Ba2Ca1Cu5O7.123,78.0
Pr1.85Ce0.15Cu1O3.97,20.0
Bi2Sr2Ca1Cu2O8+z,90.0
Bi2Sr2Ca1Cu2O10+z,110.0
Bi1.8Sr1.1Nd0.7Cu1Oz,20.0
Gd1.5Ce0.5Sr2Nb1Cu2O10+z,28.0
Bi1.64Pb0.36Sr2Ca0.95Y0.05Cu2O8+z,76.0
Bi1.64Pb0.36Sr2Ca0.67Y0.33Cu2O8+z,25.0
C0.9N0.1Sr2Cu1O5.35,13.0
C0.8N0.2Sr2Cu1O5.3,33.0
C0.8N0.2Sr2Cu1O5.35,31.0
C0.8N0.2Sr2Cu1O5.45,31.0
C0.7N0.3Sr2Cu1O5.35,35.0
C0.7N0.3Sr2Cu1O5.45,31.0
C0.7N0.3Sr2Cu1O5.55,31.0
Gd1Ba2Cu3O7-z,91.4
Gd0.98Ca0.02Ba2Cu3O7-z,85.4
Gd0.95Ca0.05Ba2Cu3O7-z,81.9
Gd0.9Ca0.1Ba2Cu3O7-z,80.3
Gd0.85Ca0.15Ba2Cu3O7-z,79.5
Gd0.8Ca0.2Ba2Cu3O7-z,68.8
Gd0.9Pr0.1Ba2Cu3O7-z,67.1
Gd0.85Pr0.1Ca0.05Ba2Cu3O7-z,70.6
Gd0.8Pr0.1Ca0.1Ba2Cu3O7-z,77.4
Gd0.75Pr0.1Ca0.15Ba2Cu3O7-z,74.2
Gd0.7Pr0.1Ca0.2Ba2Cu3O7-z,69.0
Gd0.65Pr0.1Ca0.25Ba2Cu3O7-z,60.2
Gd0.85Pr0.15Ba2Cu3O7-z,55.0
Gd0.8Pr0.15Ca0.05Ba2Cu3O7-z,64.3
Gd0.75Pr0.15Ca0.1Ba2Cu3O7-z,71.5
Gd0.7Pr0.15Ca0.15Ba2Cu3O7-z,72.4
Gd0.65Pr0.15Ca0.2Ba2Cu3O7-z,66.6
Gd0.6Pr0.15Ca0.25Ba2Cu3O7-z,61.5
Bi1.8Pb0.2Sr1.7La0.3Cu1Oz,39.0
Bi1.8Pb0.2Sr1.65La0.35Cu1Oz,41.0
Bi1.8Pb0.2Sr1.6La0.4Cu1Oz,39.0
Bi2Sr1.65La0.35Cu1Oz,32.5
Bi1.8Pb0.2Sr1.65La0.35Cu1Oz,44.0
Bi1.6Pb0.4Sr1.65La0.35Cu1Oz,43.0
La1.94Sr0.06Cu1O4+z,8.02
La1.9Sr0.1Cu1O4+z,26.9
La1.87Sr0.13Cu1O4+z,34.4
La1.93Sr0.07Cu1O4+z,14.7
La1.919Sr0.081Cu1O4+z,20.6
La1.91Sr0.09Cu1O4+z,26.7
La1.889Sr0.111Cu1O4+z,28.4
La1.883Sr0.117Cu1O4+z,28.6
La1.857Sr0.143Cu1O4+z,36.6
La1.85Sr0.15Cu1O4+z,37.4
La1.844Sr0.156Cu1O4+z,36.8
La1.812Sr0.188Cu1O4+z,31.7
La1.807Sr0.193Cu1O4+z,29.8
La1.766Sr0.234Cu1O4+z,18.7
Bi2Sr2Ca1Cu2O8+z,86.2
Bi2Sr2Ca0.91Gd0.09Cu2O8+z,87.0
Bi2Sr2Ca0.81Gd0.19Cu2O8+z,84.1
Bi2Sr2Ca0.68Gd0.32Cu2O8+z,79.0
Bi2Sr2Ca0.59Gd0.41Cu2O8+z,63.8
Ba2Ca2Cu3F0.8O7.2+z,120.0
Ba2Ca2Cu3F1O7.0+z,116.0
Ba2Ca2Cu3F1.2O6.8+z,113.0
Ba2Ca2Cu3F1.3O6.7+z,109.0
Ba2Ca2Cu3F1.4O6.6+z,106.0
Ba2Ca2Cu3F1.6O6.2+z,95.5
Ba2Ca3Cu4F1O8.2+z,104.0
Ba2Ca3Cu4F1.2O8.2+z,101.0
Ba2Ca3Cu4F1.4O8.2+z,97.0
Ba2Ca1Cu2F1.3O4.2+z,90.0
Ba2Ca4Cu5F1O10+z,90.0
Li2.6Ti1.7O4,11.4
Li2.6Ti1.9O4,11.2
Li2.6Ti2.7O4,10.9
Cd2Re2O7.1,1.0
Hg1.5Pb0.5Ba2Y0.5Ca0.5Cu2O8-z,84.0
Hg1.5Pb0.5Ba2Y0.3Ca0.7Cu2O8-z,80.0
Hg1.5Pb0.5Ba2Ca1Cu2O8-z,60.0
Yb1Ba2Cu4Oz,79.0
Yb0.99Ca0.01Ba2Cu4Oz,80.0
Yb0.95Ca0.05Ba2Cu4Oz,81.0
Yb0.9Ca0.1Ba2Cu4Oz,83.0
Yb1Ba2Cu3O6.9,92.8
Yb1Ba2Cu2.982Zn0.018O6.9,85.1
Yb1Ba2Cu2.943Zn0.057O6.9,64.3
Sm1.85Ce0.15Cu1O4-z,20.0
Sm1.85Ce0.1Th0.05Cu1O4-z,19.0
Sm1.85Ce0.07Th0.08Cu1O4-z,18.5
Sm1.85Ce0.03Th0.12Cu1O4-z,16.0
Sm1.85Th0.15Cu1O4-z,13.0
Tl0.9Ni0.1Ba2Ca2Cu3O9-z,116.3
Tl0.8Ni0.2Ba2Ca2Cu3O9-z,113.4
Tl0.7Ni0.3Ba2Ca2Cu3O9-z,111.5
Tl0.6Ni0.4Ba2Ca2Cu3O9-z,109.0
Tl0.5Ni0.5Ba2Ca2Cu3O9-z,105.0
Tl1Ba2Ca2Cu3O9-z,118.0
Tl0.9Zn0.1Ba2Ca2Cu3O9-z,119.0
Tl0.8Zn0.2Ba2Ca2Cu3O9-z,124.0
Tl0.7Zn0.3Ba2Ca2Cu3O9-z,119.0
Tl0.6Zn0.4Ba2Ca2Cu3O9-z,117.0
Tl0.4Zn0.6Ba2Ca2Cu3O9-z,113.0
Hg1.5Pb0.5Ba2Y0.72Ca0.28Cu2O8-z,74.5
Hg1.5Pb0.5Ba2Y0.72Ca0.28Cu2O8-z,82.1
Hg1.5Pb0.5Ba2Y0.7Ca0.3Cu2O8-z,84.3
Hg1.5Pb0.5Ba2Y0.29Ca0.71Cu2O8-z,80.4
Hg1.5Pb0.5Ba2Y0.29Ca0.71Cu2O8-z,60.4
Hg1.5Pb0.5Ba2Ca1Cu2O8-z,55.3
Hg1.5Pb0.5Ba2Ca1Cu2O8-z,43.0
Hg1.4Tl0.6Ba2Y1Cu2O8-z,14.0
Hg1.4Tl0.6Ba2Y0.9Ca0.1Cu2O8-z,39.6
Hg1.4Tl0.6Ba2Y0.8Ca0.2Cu2O8-z,52.3
Hg1.4Tl0.6Ba2Y0.7Ca0.3Cu2O8-z,75.3
Hg1.4Tl0.6Ba2Y0.6Ca0.4Cu2O8-z,84.3
Hg1.4Tl0.6Ba2Y0.5Ca0.5Cu2O8-z,84.3
Hg1.4Tl0.6Ba2Y0.4Ca0.6Cu2O8-z,69.4
Hg1.4Tl0.6Ba2Y0.3Ca0.7Cu2O8-z,52.3
Hg1.4Tl0.6Ba2Y0.2Ca0.8Cu2O8-z,42.1
K1Ca2Nb3O10,1.0
Bi2Sr2Ca1Cu2O8,89.7
Hg1Ba2Cu1O4.37,35.0
Hg1Ba2Cu1O4+Z,93.0
Y1Ba2Cu3O6.57,55.0
Nd1.85Ce0.15Cu1O4,17.2
Dy1Ba1Sr1Cu3O7-z,82.0
Y1Ba2Cu4O8,78.1
Y1Ba1.8Sr0.2Cu4O8,76.5
Y1Ba1.65Sr0.35Cu4O8,80.8
Y1Ba1.6Sr0.4Cu4O8,81.4
Y1Ba1.36Sr0.64Cu4O8,81.0
Sm1.85Ce0.15Cu1O3.97,21.8
Sm1.75Gd0.1Ce0.15Cu1O3.97,21.4
Sm1.65Gd0.2Ce0.15Cu1O3.97,21.0
Sm1.55Gd0.3Ce0.15Cu1O3.97,20.2
Sm1.45Gd0.4Ce0.15Cu1O3.97,19.2
Sm1.35Gd0.5Ce0.15Cu1O3.97,18.8
Sm1.25Gd0.6Ce0.15Cu1O3.97,16.8
Sm1.15Gd0.7Ce0.15Cu1O3.97,16.8
Sm1.05Gd0.8Ce0.15Cu1O3.97,15.0
Sm0.85Gd1Ce0.15Cu1O3.97,11.3
Sm0.75Gd1.1Ce0.15Cu1O3.97,9.6
Li0.34Rb1Ca2Nb3O10,3.54
Li0.46Rb1Ca2Nb3O10,3.54
Li0.62Rb1Ca2Nb3O10,2.71
Li0.34Rb1Sr2Nb3O10,6.03
Li0.34K1Ca2Nb3O10,5.39
Li0.34Cs1Ca2Nb3O10,5.4
Li0.46Cs1Ca2Nb3O10,5.31
Li0.62Cs1Ca2Nb3O10,4.71
Li0.28Cs1Ca2Nb3O10,5.51
Hg1Ba2Cu1O4.032,36.0
Hg1Ba2Cu1O4.033,48.0
Hg1Ba2Cu1O4.043,72.0
Hg1Ba2Cu1O4.052,82.0
Hg1Ba2Cu1O4.058,89.0
Hg1Ba2Cu1O4.047,95.0
Hg1Ba2Cu1O4.081,98.0
Hg1Ba2Cu0.97Zn0.03O4.027,28.0
Hg1Ba2Cu0.97Zn0.03O4.043,53.0
Hg1Ba2Cu0.97Zn0.03O4.052,69.0
Hg1Ba2Cu0.97Zn0.03O4.063,75.0
Hg1Ba2Cu0.97Zn0.03O4.073,82.0
Hg1Ba2Cu0.97Zn0.03O4.081,83.0
La1.875Ba0.075Sr0.05Cu1O4,9.6
La1.875Ba0.065Sr0.06Cu1O4,10.4
La1.875Ba0.05Sr0.075Cu1O4,13.5
La1.875Ba0.04Sr0.085Cu1O4,31.7
La1.875Ba0.025Sr0.1Cu1O4,30.2
La1.875Ba0.005Sr0.12Cu1O4,31.1
Y1Ba2Cu3O7-z,93.0
Y1Ba2Cu3O6.6,58.2
Y1Ba2Cu2.97Ni0.03O7-z,87.0
Y1Ba2Cu2.91Ni0.09O7-z,76.0
Y1Ba2Cu2.988Zn0.012O7-z,85.0
Y1Ba2Cu2.982Zn0.018O7-z,82.0
Y1Ba2Cu2.91Zn0.09O7-z,55.0
Y1Ba2Cu2.988Zn0.012O6.75,62.0
Y1Ba2Cu2.982Zn0.018O6.75,57.8
La1.85Sr0.15Cu0.9975Zn0.0025O4,34.8
La1.85Sr0.15Cu0.995Zn0.005O4,32.2
La1.85Sr0.15Cu0.9925Zn0.0075O4,28.7
La1.85Sr0.15Cu0.99Zn0.01O4,26.4
La1.85Sr0.15Cu0.9875Zn0.0125O4,22.3
La1.85Sr0.15Cu0.985Zn0.015O4,20.0
La1.85Sr0.15Cu0.9825Zn0.0175O4,15.0
La1.85Sr0.15Cu0.98Zn0.02O4,13.7
La1.85Sr0.15Cu0.9775Zn0.0225O4,8.0
La1.85Sr0.15Cu0.975Zn0.025O4,7.3
La1.85Sr0.15Cu0.9725Zn0.0275O4,1.2
La1.8Sr0.2Cu0.9975Zn0.0025O4,30.2
La1.8Sr0.2Cu0.9952Zn0.0048O4,28.6
La1.8Sr0.2Cu0.9928Zn0.0072O4,27.0
La1.8Sr0.2Cu0.99Zn0.01O4,25.6
La1.8Sr0.2Cu0.9883Zn0.0117O4,23.6
La1.8Sr0.2Cu0.983Zn0.017O4,19.8
La1.8Sr0.2Cu0.98Zn0.02O4,17.7
La1.8Sr0.2Cu0.9777Zn0.0223O4,15.7
La1.8Sr0.2Cu0.9753Zn0.0247O4,13.7
La1.8Sr0.2Cu0.9727Zn0.0273O4,11.1
La1.8Sr0.2Cu0.9703Zn0.0297O4,9.0
La1.8Sr0.2Cu0.9676Zn0.0324O4,5.5
La1.9Sr0.1Cu1O4,26.9
La1.9Sr0.1Cu0.9975Zn0.0025O4,23.6
La1.9Sr0.1Cu0.995Zn0.005O4,19.1
La1.9Sr0.1Cu0.9925Zn0.0075O4,14.5
La1.9Sr0.1Cu0.99Zn0.01O4,8.8
Sm1Ba2Cu3O7-z,92.9
Eu1Ba2Cu3O7-z,91.4
Gd1Ba2Cu3O6.98,94.2
Y0.4Yb0.6Ba2Cu3O6.93,91.1
Y0.2Yb0.8Ba2Cu3O6.91,91.4
Yb1Ba2Cu3O6.93,89.5
Yb0.9Lu0.1Ba2Cu3O7-z,89.5
Yb0.8Lu0.2Ba2Cu3O6.94,89.9
Yb0.7Lu0.3Ba2Cu3O7-z,89.7
Yb0.6Lu0.4Ba2Cu3O6.92,89.7
Ba0.6K0.4Bi1O3,30.9
Ba0.6K0.4Bi0.99Pr0.01O3,26.4
Ba0.6K0.4Bi0.979Pr0.021O3,23.5
Ba0.6K0.4Bi0.969Pr0.031O3,18.4
Ba0.6K0.4Bi0.955Pr0.045O3,14.4
Ba0.6K0.4Bi0.933Pr0.067O3,11.1
Ba0.6K0.4Bi0.925Pr0.075O3,4.5
Ba0.47K0.53Bi1O3,11.0
Ba0.47K0.53Bi0.995Pr0.005O3,9.0
Ba0.47K0.53Bi0.99Pr0.01O3,6.4
Ba0.47K0.53Bi0.985Pr0.015O3,5.2
Ba0.47K0.53Bi0.979Pr0.021O3,4.5
Ba0.47K0.53Bi0.972Pr0.028O3,4.0
Ba0.47K0.53Bi0.965Pr0.035O3,2.97
Sr2Ca12Cu24O41,5.0
Y1Ba2Cu3O7-z,85.49
Y0.8Sm0.2Ba2Cu3O7-z,80.0
Y0.6Sm0.4Ba2Cu3O7-z,78.0
Y1Ba2Cu4O8,68.8
Y1Ba1.8Sr0.2Cu4O8,76.8
Y1Ba1.6Sr0.4Cu4O8,76.6
Y1Ba1.4Sr0.6Cu4O8,75.8
Y1Ba2Cu3.96Mn0.04O8,62.8
Y1Ba2Cu3.92Mn0.08O8,41.6
La1Ba1.5Sr0.5Cu3O6.902,54.0
La0.9Pr0.1Ba1.5Sr0.5Cu3O6.904,44.0
La0.8Pr0.2Ba1.5Sr0.5Cu3O6.906,24.0
La0.95Ca0.05Ba1.5Sr0.5Cu3O6.878,66.0
La0.9Ca0.1Ba1.5Sr0.5Cu3O6.847,68.0
La0.85Ca0.15Ba1.5Sr0.5Cu3O6.819,71.0
La0.8Ca0.2Ba1.5Sr0.5Cu3O6.794,73.0
La0.85Ca0.05Pr0.1Ba1.5Sr0.5Cu3O6.865,50.0
La0.8Ca0.1Pr0.1Ba1.5Sr0.5Cu3O6.856,56.0
La0.75Ca0.15Pr0.1Ba1.5Sr0.5Cu3O6.845,62.0
La0.7Ca0.2Pr0.1Ba1.5Sr0.5Cu3O6.809,63.0
La0.75Ca0.05Pr0.2Ba1.5Sr0.5Cu3O6.886,33.0
La0.7Ca0.1Pr0.2Ba1.5Sr0.5Cu3O6.862,40.0
La0.65Ca0.15Pr0.2Ba1.5Sr0.5Cu3O6.84,45.0
La0.6Ca0.2Pr0.2Ba1.5Sr0.5Cu3O6.809,47.0
La0.65Ca0.05Pr0.3Ba1.5Sr0.5Cu3O6.896,14.0
La0.6Ca0.1Pr0.3Ba1.5Sr0.5Cu3O6.872,26.0
La0.55Ca0.15Pr0.3Ba1.5Sr0.5Cu3O6.851,27.0
La0.5Ca0.2Pr0.3Ba1.5Sr0.5Cu3O6.829,34.0
Bi2Sr2Ca1Cu2O8+z,69.4
Sr2Y1Ru0.9Cu0.1O6,37.5
Sr2Ho1Ru0.9Cu0.1O6,30.0
Sr2Y1Ru0.9Cu0.1O6,45.0
Bi2.1Sr1.8Ca1Cu1.96Co0.04O8,73.0
Bi2.1Sr1.8Ca1Cu1.982Zn0.018O8,83.0
La1.84Sr0.16Cu0.99Fe0.01O4,30.0
La1.85Sr0.15Cu1FeO4,39.9
Eu1.5Ce0.5Ru1Sr2Cu2O10+z,45.0
La1.86Sr0.14Cu0.99Li0.01O4,38.25
La1.87Sr0.13Cu0.98Li0.02O4,32.85
La1.885Sr0.115Cu0.965Li0.035O4,26.5
La1.9Sr0.1Cu0.95Li0.05O4,20.0
Fe0.5Sr1Ba1Y1Cu2.5O7,58.5
Ru1Sr1.98La0.02Gd1Cu2O8,30.0
Bi1.7Pb0.3Sr2Ca0.55Y0.45Cu1.94Zn0.06O8,41.3
Bi1.7Pb0.3Sr2Ca0.6Y0.4Cu1.94Zn0.06O8,53.5
Bi1.7Pb0.3Sr2Ca0.65Y0.35Cu1.94Zn0.06O8,62.1
Bi1.7Pb0.3Sr2Ca0.7Y0.3Cu1.94Zn0.06O8,66.9
Bi1.7Pb0.3Sr2Ca0.75Y0.25Cu1.94Zn0.06O8,60.6
Bi1.7Pb0.3Sr2Ca0.8Y0.2Cu1.94Zn0.06O8,54.4
Bi1.7Pb0.3Sr2Ca0.5Y0.5Cu2O8,41.3
Bi1.7Pb0.3Sr2Ca0.6Y0.4Cu2O8,63.5
Bi1.7Pb0.3Sr2Ca0.8Y0.2Cu2O8,69.7
La2.5Gd0.5Ca1Ba3Cu7O16.539,80.0
La2.3Gd0.7Ca1Ba2.8Sr0.2Cu6.86In0.14O16.536,72.0
La2.1Gd0.9Ca1Ba2.6Sr0.4Cu6.72In0.28O16.54,65.0
La1.9Gd1.1Ca1Ba2.4Sr0.6Cu6.58In0.42O16.554,58.0
La1.7Gd1.3Ca1Ba2.2Sr0.8Cu6.44In0.56O16.6,30.0
La1.3Gd1.5Ca1.2Ba2Sr1Cu6.3In0.7Oz,56.0
La1.1Gd1.5Ca1.4Ba2Sr1Cu6.3In0.7Oz,63.0
La0.9Ga1.5Ca1.6Ba2Sr1Cu6.3In0.7Oz,68.0
Sr0.9La0.1Cu0.99Zn0.01O2,42.0
Sr0.9La0.1Cu0.97Zn0.03O2,38.0
Sr0.9La0.1Cu0.99Ni0.01O2,30.0
La1.48Nd0.4Sr0.12Cu1O4,8.0
Hg0.85Mo0.15Sr2Cu1O4+z,56.0
Hg0.85Mo0.15Sr2Cu1O4+z,66.0
Hg0.7Mo0.3Sr2Cu1O4+z,36.0
Gd1Sr2Ru1Cu2O8,16.45
Gd1Sr2Ru0.95Cu2.05O8,26.05
Gd1Sr2Ru0.9Cu2.1O8,37.75
Gd1Sr2Ru0.8Cu2.2O8,28.4
Y1Ba1.96Sr0.04Cu3O7-z,90.0
Y1Ba1.9Sr0.1Cu3O7-z,88.0
Y1Ba1.8Sr0.2Cu3O7-z,85.0
Y1Ba1.6Sr0.4Cu3O7-z,83.0
Y1Ba1.2Sr0.8Cu3O7-z,80.0
Y1Ba0.8Sr1.2Cu3O7-z,78.0
Y1Ba2Cu2.961Co0.039O7-z,93.0
Bi2Sr2Cu1O6.09,10.0
Bi2Sr2Cu1O6.13,16.0
Bi2Sr2Cu1O6.14,14.0
Bi2Sr2Cu1O6.16,10.0
Bi2Sr2Cu1O6.175,7.0
Bi2Sr2Cu1O6.18,3.0
Bi2Sr2Ca1Cu2O8+z,65.0
Bi2Sr2Ca1Cu2O8+z,87.3
Bi2Sr2Ca1Cu2O8+z,77.0
Eu1.6Ce0.4Sr2Ru1Cu2O10,32.0
Eu1.5Ce0.5Sr2Ru1Cu2O10,34.0
Eu1.4Ce0.6Sr2Ru1Cu2O10,35.0
Eu1.3Ce0.7Sr2Ru1Cu2O10,33.0
Eu1.2Ce0.8Sr2Ru1Cu2O10,30.0
Nd1.5Ce0.5Sr2Nb1Cu2O10,28.0
Nd1.5Ce0.5Sr2Ta1Cu2O10,25.0
Y2Ba4Cu7O14.03,4.3
Y2Ba4Cu7O14.19,13.9
Y2Ba4Cu7O14.33,22.0
Y2Ba4Cu7O14.46,32.1
Y2Ba4Cu7O14.6,41.2
Y2Ba4Cu7O14.81,54.1
Y2Ba4Cu7O14.95,67.0
Y2Ba4Cu7O15,72.2
Tl2Ba2Cu1O6+z,25.0
Tl2Ba2Cu1O6+z,85.0
Cd2Re2O7,0.98
Sr2Ru1O4,0.43
Sr2Ru1O4,0.68
Sr2Ru1O4,1.1
Sr2Ru1O4,1.17
Sr2Ru1O4,0.79
Sr2Ru1O4,1.08
Sr2Ru1O4,1.14
Bi2Sr2Ca1Cu2O8+z,56.0
Sr4Ca10Cu24O41,4.0
Sr2Ca12Cu24O41,5.5
Hg1.75Pb0.25Ba2Y0.7Ca0.3Cu2O8-z,70.0
Ru1Sr2Gd1Cu2O8-z,45.0
Ru0.6Sr2Gd1Cu2.4O8-z,72.0
Ru0.6Sr2Eu1Cu2.4O8-z,70.0
Cd2Re2O7,1.4
Hg0.7Cr0.3Sr2Cu1O4+z,68.0
Hg0.7Cr0.3Sr2Cu0.99Zn0.01O4+z,63.0
Hg0.7Cr0.3Sr2Cu0.98Zn0.02O4+z,60.0
Hg0.7Cr0.3Sr2Cu0.97Zn0.03O4+z,57.0
Hg0.7Cr0.3Sr2Cu0.96Zn0.04O4+z,54.0
Hg0.7Cr0.3Sr2Cu0.95Zn0.05O4+z,51.0
Hg0.7Cr0.3Sr2Cu0.99Ni0.01O4+z,59.0
Hg0.7Cr0.3Sr2Cu0.98Ni0.02O4+z,53.0
Hg0.7Cr0.3Sr2Cu0.97Ni0.03O4+z,48.0
Hg0.7Cr0.3Sr2Cu0.96Ni0.04O4+z,43.0
Hg0.7Cr0.3Sr2Cu0.95Ni0.05O4+z,39.0
Hg0.7Cr0.3Sr2Cu0.925Ni0.075O4+z,28.0
Hg0.7Cr0.3Sr2Cu0.9Ni0.1O4+z,18.0
Hg0.7Cr0.3Sr2Cu0.99Co0.01O4+z,58.0
Hg0.7Cr0.3Sr2Cu0.98Co0.02O4+z,52.0
Hg0.7Cr0.3Sr2Cu0.97Co0.03O4+z,46.0
Hg0.7Cr0.3Sr2Cu0.96Co0.04O4+z,42.0
Hg0.7Cr0.3Sr2Cu0.95Co0.05O4+z,35.0
Na0.33V2O5,8.0
Tl1Sr2Ca0.8Y0.2Cu2O7,52.75
Tl1Sr2Ca0.6Y0.4Cu2O7,68.0
Tl1Sr2Ca0.4Y0.6Cu2O7,35.0
Hg0.82Re0.18Ba2Ca2Cu3O8+z,131.5
Hg0.82Re0.18Ba2Ca2Cu3O8+z,132.0
Nd1Ba2Cu3O7-z,91.5
Nd0.95Ca0.025Pr0.025Ba2Cu3O7-z,86.1
Nd0.9Ca0.05Pr0.05Ba2Cu3O7-z,81.4
Nd0.8Ca0.1Pr0.1Ba2Cu3O7-z,70.8
Nd1Ba2Cu3O7-z,93.6
La1.88Sr0.12Cu1O4,27.0
La1.84Y0.04Sr0.12Cu1O4,17.0
Sr2.3Ca0.7Cu2Cl1.3O4+z,80.0
La1.94Sr0.06Cu1O4,2.8
La1.9Sr0.1Cu1O4,18.0
La1.8Sr0.2Cu1O4,22.3
La1.75Sr0.25Cu1O4,16.5
Y1Sr2Cu3O7.2,64.0
Y1Sr2Cu3O6.92,68.0
Tl2Ba2Ca1Cu2O8,105.0
Ru1Gd1.4Ce0.6Sr2Cu2O10+z,36.0
Y1Ba2Cu3O6.45,20.0
Y1Ba2Cu3O6.5,35.5
Y1Ba2Cu3O6.65,56.3
Y1Ba2Cu3O6.7,59.1
Y1Ba2Cu3O6.75,62.1
Y1Ba2Cu3O6.8,69.2
Y1Ba2Cu3O6.85,83.2
Y0.98Pr0.02Ba2Cu3O7-z,92.2
Y0.96Pr0.04Ba2Cu3O7-z,92.0
Y0.94Pr0.06Ba2Cu3O7-z,91.5
Y0.92Pr0.08Ba2Cu3O7-z,90.5
Y0.9Pr0.1Ba2Cu3O7-z,89.2
Y0.85Pr0.15Ba2Cu3O7-z,84.5
Y0.8Pr0.2Ba2Cu3O7-z,79.5
Y0.75Pr0.25Ba2Cu3O7-z,72.0
Y0.7Pr0.3Ba2Cu3O7-z,64.0
Bi2Sr2Ca2Cu3O10+z,110.0
Bi2Sr2Ca1Cu1.9Mn0.1O8+z,66.0
Bi2Sr2Ca1Cu1.8Mn0.2O8+z,53.0
Bi2Sr2Ca1Cu1.7Mn0.3O8+z,40.0
Sr0.9La0.1Cu1O2,42.7
La1.81Ho0.04Sr0.15Cu1O4,32.0
Ru1Sr2Gd1Cu2O8,42.4
Ba0.635K0.365Bi1O3,30.4
Ba0.557K0.443Bi1O3,25.0
Ba0.445K0.555Bi1O3,14.0
Ba0.34K0.66Bi1O3,7.0
K0.915Bi1.085O3,9.0
Ba0.33K0.67Bi1O3,0.77
Ba0.35K0.65Bi1O3,1.88
Ba0.4K0.6Bi1O3,7.2
Ba0.45K0.55Bi1O3,12.7
Ba0.5K0.5Bi1O3,18.6
Ba0.644K0.356Bi1O3,29.0
Ba0.613K0.387Bi1O3,30.7
Ba0.584K0.416Bi1O3,28.8
Ba0.553K0.447Bi1O3,25.5
Ba0.542K0.458Bi1O3,23.1
Ba0.595K0.405Bi1O3,31.2
Ba0.665K0.335Bi1O2.985,27.3
Ba0.66K0.34Bi1O3,26.2
Ba0.63K0.37Bi1O3,28.3
Ba0.6K0.4Bi1O2.977,29.0
Ba0.57K0.43Bi1O2.983,25.6
Ba0.51K0.49Bi1O2.974,22.2
Ba0.46K0.56Bi1O2.965,14.8
Ba0.37K0.63Bi1O2.952,8.71
Ru1Sr2Nd1.4Ce0.6Cu2O10-z,40.0
Hg0.85Re0.15Ba2Ca2Cu3O8,132.9
Hg0.85Re0.15Ba1.66Sr0.34Ca2Cu3O8,131.3
Hg0.85Re0.15Ba1.6Sr0.4Ca2Cu3O8,130.3
Hg0.85Re0.15Ba1.44Sr0.56Ca2Cu3O8,128.7
Bi2.2Sr1.72La0.08Ca1Cu2O8,60.5
Bi2.2Sr1.72La0.08Ca1Cu2O8,69.1
Bi2.2Sr1.72La0.08Ca1Cu2O8,78.2
Bi2.2Sr1.72La0.08Ca1Cu2O8,83.1
Bi2.2Sr1.72La0.08Ca1Cu2O8,84.7
Bi2.2Sr1.72La0.08Ca1Cu2O8,84.1
Bi2.2Sr1.72La0.08Ca1Cu2O8,82.5
Ru1Sr2Gd1.4Ce0.6Cu2O10-z,42.0
Ru0.99Sb0.01Sr2Gd1.4Ce0.6Cu2O10-z,39.1
Ru0.98Sb0.02Sr2Gd1.4Ce0.6Cu2O10-z,33.0
Ru0.95Sb0.05Sr2Gd1.4Ce0.6Cu2O10-z,29.0
Ru0.93Sb0.07Sr2Gd1.4Ce0.6Cu2O10-z,17.0
Bi1.7Pb0.3Ag0.1Sr2Ca2Cu3Oz,105.0
Bi1.7Pb0.3Ag0.2Sr2Ca2Cu3Oz,97.0
Bi1.7Pb0.3Ag0.3Sr2Ca2Cu3Oz,96.0
Bi1.7Pb0.3Ag0.4Sr2Ca2Cu3Oz,106.0
Bi2Sr2Ca1Cu2O8,74.0
Bi1.7Pb0.3Sr2Ca1Cu2O8,80.0
Bi1.7Pb0.3Sr2Ca2Cu3O10,108.0
Bi1.7Pb0.3Sr2Ca1Cu2O8,81.0
La1.85Sr0.15Cu1O4+z,37.9
La1.85Sr0.15Cu0.995V0.005O4+z,36.9
La1.85Sr0.15Cu0.9875V0.0125O4+z,35.9
La1.85Sr0.15Cu0.9825V0.0175O4+z,35.0
La1.85Sr0.15Cu0.98V0.02O4+z,30.9
La1.85Sr0.15Cu0.975V0.025O4+z,29.9
La1.85Sr0.15Cu0.95V0.05O4+z,28.0
La1.85Sr0.15Cu0.925V0.075O4+z,23.9
La1.85Sr0.15Cu0.9V0.1O4+z,15.0
La1.85Sr0.15Cu0.875V0.125O4+z,9.11
Tl0.5Pb0.5Ba1.6Sr0.4Ca2Cu3Oz,120.2
La1.7Sr0.3Cu1O3.997,10.2
Y1Ba2Cu3O7-z,83.0
Y1Ba2Cu3O6.957,91.0
Sm1Ba2Cu3O6.858,90.0
Gd1Ba2Cu3O6.758,92.0
Dy1Ba2Cu3O6.879,86.0
Tm1Ba2Cu3O6.71,78.0
Nd1.86Ce0.14Cu1O4,22.9
Nd1.85Ce0.15Cu1O4,24.3
Nd1.84Ce0.16Cu1O4,22.6
Nd1.83Ce0.17Cu1O4,15.7
Pr0.91La1Ce0.09Cu1O4,25.2
Pr0.89La1Ce0.11Cu1O4,24.6
Pr0.85La1Ce0.15Cu1O4,24.0
Pr0.83La1Ce0.17Cu1O4,19.8
Pr0.82La1Ce0.18Cu1O4,16.2
Pr0.8La1Ce0.2Cu1O4,15.6
Ba0.61K0.39Bi1O3,31.5
Y0.8Pr0.2Ba2Cu4O8,62.0
Y0.8Pr0.2Ba2Cu3.975Fe0.025O8,46.0
Y0.8Pr0.2Ba2Cu3.95Fe0.05O8,33.0
Y0.8Pr0.2Ba2Cu3.925Fe0.075O8,10.0
Ba0.6K0.4O3,30.8
Y1Ba2Cu3O7-z,86.5
Sr0.6Ca0.2Cu1O2-z,26.5
La1.937Sr0.063Cu1O4,11.7
La1.93Sr0.07Cu1O4,15.4
La1.91Sr0.09Cu1O4,27.3
La1.9Sr0.1Cu1O4,29.2
La1.889Sr0.111Cu1O4,29.2
Na0.35Co1H2.6O3.3,5.0
Pr1.85Ce0.15Cu1O4,22.0
Ru1Sr2Eu1Cu2O8,11.0
Ru0.9Sn0.1Sr2Eu1Cu2O8,16.0
Ru0.7Sn0.3Sr2Eu1Cu2O8,20.0
Bi2Sr2Ca1Cu2O8,93.1
Bi2Sr2.08Ca0.92Cu2O8,95.3
Bi2Sr2.2Ca0.8Cu2O8,89.9
Bi2Sr2.4Ca0.6Cu2O8,94.2
Bi2Sr2.65Ca0.35Cu2O8,93.6
Bi2Sr3Cu2O8,91.5
La0.2Pr0.3Ca0.5Ba2Cu3O7-z,100.0
Pr0.5Ca0.5Ba2Cu3O7-z,105.0
Nd0.2Pr0.3Ca0.5Ba2Cu3O7-z,100.0