composition,critical_temperature_tc
Nb1N1.34O0.27,11.3
Nb1N1.25O0.25,11.9
Nb1N1.22O0.18,12.3
Nb1N1.08O0.27,12.8
Nb1N0.9O0.02,14.7
In0.95Te1,2.7
In0.91Te1,2.04
In0.87Te1,1.55
In0.83Te1,1.15
In0.82Te1,1.06
In1.15Te1,2.6
In1.1Te1,2.8
In1.05Te1,3.41
In1.015Te1,3.51
In1Te1,3.45
Sr0.925Ba0.075Ti1O3,0.5
As1Ga1,4.8
Al1Sb1,2.8
Ga1Sb1,4.2
In1Te1,2.18
Bi1Sn1,7.88
Bi2Te3,2.8
Sr1Ti1O3,0.43
Sr1Ti1O3,0.33
Sr1Ti1O3,0.3
Sr0.95Ba0.05Ti1O3,0.5
Sr0.7Ca0.3Ti1O3,0.5
In1Sb1,2.0
In1Sb1,4.1
In1Sb1,3.6
W7Re13B1,7.1
W7Re13C1,7.3
Na0.65H5Sn1.16S5.16Ta2O2.5,4.0
Na0.4H3.6Pb1.14S5.14Ta2O1.8,3.7
Na0.4H3.6Sb1.16S5.16Ta2O1.8,3.5
Pb1.14S5.14Ta2,3.3
Sb1.16S5.16Ta2,3.0
Bi1.08S5.08Ta2,2.7
Ge2U1,0.62
Li2B1Pd3,7.61
Li2B1Pd2.7Pt0.3,6.59
Li2B1Pd2.4Pt0.6,4.9
Li2B1Pd1.5Pt1.5,3.72
Li2B1Pd0.9Pt2.1,2.31
Li2B1Pt3,1.86
La1Fe4P12,4.0
La1Ru4P12,7.0
La1Os4P12,1.8
Ce1Co1In5,2.25
Cs1Os1O6,3.3
Rb1Os1O6,6.3
B2Nb1,4.44
B2.03Nb1,5.26
B2.1Nb1,5.8
Pb1,7.193
Ge2U1,0.7
Sn1Te1,0.214
Sn1Te1,0.174
Sn1Te1,0.104
Sn1Te1,0.068
Sn1Te1,0.034
La3Se4,10.0
In1Te1,3.2
As3Sn4,1.16
In3Te4,1.15
Ge3Te4,1.55
Sr0.95Ba0.05Ti1O3,0.55
Sr0.925Ca0.075Ti1O3,0.5
Sr0.7Ca0.3Ti1O3,0.55
In0.03Sn0.97Te1.01,1.07
In0.04Sn0.96Te1.01,1.14
In0.045Sn0.955Te1.01,1.2
In0.05Sn0.95Te1.01,1.43
In0.06Sn0.94Te1.01,1.36
In0.08Sn0.92Te1.01,1.45
In0.1Sn0.9Te1.01,1.75
Mg1B1.924C0.076,35.5
Mg1B1.85C0.15,27.2
Mg1B1.8C0.2,21.5
Mg0.8Al0.2B2,22.9
B2Mg1,30.4
B2Mg1,22.8
B2Mg1,17.1
B2Mg1,13.6
B2Mg1,8.13
Mg0.978Al0.022B2,34.7
Mg0.956Al0.044B2,34.0
Mg0.915Al0.085B2,32.4
Mg0.815Al0.185B2,25.3
B2Mg1,38.2
Mg0.815Al0.09B2,32.7
Mg0.815Al0.18B2,25.7
Mg0.815Al0.024B2,35.0
Mg0.815Al0.092B2,32.0
Li2Pd3B1,7.1
U1Rh1Ge1,0.222
Mg1C1Ni3,6.9
Mg1C0.925Ni3,7.09
Mg1C0.885B0.04Ni3,6.97
Mg1C0.853B0.072Ni3,6.76
Mg1C0.814B0.111Ni3,6.88
Mg1C0.771B0.154Ni3,6.44
Ce1Co1In5,2.26
Ce1Co1In4.94Sn0.06,1.56
Na0.1Ta1S2,4.4
Na0.05Ta1S2,4.0
C60Rb3,30.9
Zr1N1Cl0.7,12.8
Ce1Rh0.6Co0.4In5,1.5
Ce1Rh0.4Co0.6In5,1.43
Ce1Rh0.35Co0.65In5,1.38
Ce1Rh0.29Co0.71In5,1.56
Ce1Rh0.23Co0.77In5,1.38
Ce1Rh0.13Co0.87In5,1.73
Ce1Rh0.07Co0.93In5,1.89
Pu1Rh1Ga5,8.6
Nb1Se3,5.0
Nb1Se3,3.71
Ba7.76Si46,9.0
Ba7.61Si46,8.2
Ba6.63Si46,6.0
Ba6.62Si46,5.0
Ce0.9Pr0.1Ru2,6.55
Ce0.8Pr0.2Ru2,5.82
Ce0.7Pr0.3Ru2,5.11
Ce0.65Pr0.35Ru2,1.25
Ge2La1,2.24
Ge1.9La1,2.17
Ge1.85La1,2.17
Ge1.83La1,2.17
Ge1.81La1,2.17
Ge1.8La1,1.87
Ge1.78La1,1.57
Ge3Y1,2.35
Mg0.99Cr0.01B2,36.7
Mg0.98Cr0.02B2,35.3
Mg0.97Cr0.03B2,35.1
Dy0.95Tb0.05Ni2B2C1,5.61
Dy0.9Tb0.1Ni2B2C1,4.7
Dy0.75Tb0.25Ni2B2C1,3.24
Dy1Ni2B2C1,6.24
Pr2Ba4Cu7O14.5,10.0
Pr2Ba4Cu7O15-z,15.0
Sr2Ca12Cu24O41,5.18
La1Os4Sb12,1.0
Pt3U1,0.5
Mn1U6,2.21
Fe1U6,3.7
Co1U6,2.29
Ni1U6,0.35
Ce1Cu2Si2,0.64
Hf1V2,8.6
Hf1V2,7.6
C6Ca1,11.5
La1.75Nd0.1Sr0.15Cu1O4,31.8
La1.65Nd0.2Sr0.15Cu1O4,29.0
La1.55Nd0.3Sr0.15Cu1O4,19.2
La1.45Nd0.4Sr0.15Cu1O4,9.0
Bi2Sr1.6La0.4Cu1O6+z,34.0
Bi2Sr1.6Nd0.4Cu1O6+z,29.5
Bi2Sr1.6Eu0.4Cu1O6+z,16.0
Bi2Sr1.6Gd0.4Cu1O6+z,12.9
Bi2Sr1.6La0.2Gd0.2Cu1O6+z,27.0
Cd0.01In0.99,3.3445
Cd0.02In0.98,3.2945
Cd0.03In0.97,3.2755
Cd0.04In0.96,3.2595
In1La3,9.46
La2.9579Ce0.0421In1,7.11
La2.9394Ce0.0606In1,5.72
La2.9251Ce0.0749In1,4.42
La2.9234Ce0.0766In1,4.02
La2.9602Gd0.0398In1,6.04
B12Zr1,5.94
B1Mo2,5.86
B1W2,3.18
Nb3Sn1,17.9
Sn1,3.72
Ir1Mo3,8.35
Mo1,0.916
B2Mg1,38.81
Ag0.15Bi0.85,5.3
Ag1Bi2,3.0
Ag7F4O8B1,0.15
Ag0.002Al0.998,1.128
Ag0.167Al0.833,0.88
Ag7F0.25N0.75O10.25,1.04
Ag7F2H1O8,1.5
Ag2I1,0.066
Ag0.16D0.47Pd0.84,15.3
Ag0.035Cd0.01Sn0.955,3.65
Ag1La1,1.2
Ag1La1,0.96
Ag0.12In0.88,4.69
Ag2In1,2.11
Ag0.438Hg0.562,0.64
Ag0.45Ge0.55,1.5
Ag4Ge1,0.85
Ag0.05Rh0.04Ti0.91,1.95
Ag2Pb3S1,1.13
Ag0.15Pb0.975Sn0.01,7.25
Ag1Nb3,8.28
Ag1.2Mo4.8S6,8.9
Ag1Mo4S5,7.7
Ag1Mo4S5,8.3
Ag1Th2,2.19
Ag1Te3,2.6
Al1Au4,0.7
Al2Au1,0.095
Al0.9As0.05Ga0.05Nb3,19.2
Al1,1.175
Ag0.005Zn0.995,0.763
Ag0.1Tl0.9,3.57
Ag1Tl1,2.67
Ag0.94Tl0.06,2.32
Al2C1Mo3,10.0
Al0.95Be0.05Nb3,19.6
Al0.1Be0.9,7.2
Al0.3Be0.7,6.5
Al0.95B0.05Nb3,19.1
Al0.2B5Mo1.8,5.7
Al2Ca1Si1,5.8
Al0.5Ga0.5V3,12.9
Al0.5Ga0.5Nb3,19.0
Al0.9Ga0.1Nb3,17.7
Al0.999Fe0.001,1.5
Al0.997Er0.003,1.658
Al1Cu1,3.45
Al2.06Cu1,0.65
Al1Cr0.3Nb2.7,14.1
Al0.8Ge0.2Nb3,20.05
Al0.9Ge0.1Nb3,18.9
Al1Ge1Nb3,19.5
Al0.77Ge0.23Nb3,20.75
Al1Ge1,5.5
Al0.9Ge0.1,6.45
Al0.964Ge0.036,2.74
Al0.33Ge0.67,1.75
Al2Gd0.002La0.998,2.45
Al0.1Ga0.9V3,13.9
Al0.3Ga0.7V3,13.9
Al1La3,6.16
Al2La1,0.3
Al2La1,2.237
Al0.046In0.151Sn0.803,4.38
Al0.75Ge0.25Nb3.8,20.34
Al0.75Ge0.25Nb0.003,20.7
Al0.66Ge0.22Nb3.1,20.29
Al0.75Ge0.25Nb3,20.2
Al0.39Mg0.61,1.5
Al0.6Mg0.4,1.7
Al0.61Mg0.39,0.85
Al0.28Mg0.18,1.63
Al3Mg2,0.84
Al1Nb3,18.1
Al1Nb3,18.52
Al1Nb3,18.8
Al1Nb3,3.1
Al0.33Nb0.67,13.5
Al2N1Nb3,1.3
Al1N1,1.55
Al0.5Mo5S6Sn1,14.2
Al1Mo6Pd1,2.1
Al1Mo3,0.58
Al1Nb2.1V0.9,12.5
Al1Nb1Sn1,17.45
Al0.5Nb3Sn0.5,15.8
Al0.22Nb0.75Si0.3,19.2
Al0.9Nb3Sb0.1,18.06
Al0.95Nb3Sb0.5,17.81
Al0.01Nb0.97O0.02,8.3
Al0.04Nb0.895O0.06,7.1
Al1Nb2Ni1,4.2
Al1Nb3,17.4
Al1Nb3,18.6
Al0.215Nb0.785,17.97
Al2Pt1,0.55
Al1Os1,0.39
Al3Os1,5.9
Al13Os4,5.5
Al0.175Nb0.775Zr0.05,10.0
Al0.23Nb0.75Zr0.013,18.3
Al1Nb2.7V0.3,15.4
Al1Ta3,1.59
Al0.152Sn0.848,3.69
Al0.2Si0.8V3,15.7
Al0.1Si0.9V3,16.1
Al5Re24,3.35
Al6Re1,1.85
Al1V3,10.3
Al0.108V0.892,1.82
Al0.03Ti0.81V0.16,5.1
Al2Th3,2.6
Al1Th2,0.09
Al3Th1,0.75
Al0.992Zn0.008,1.132
Al3Yb1,0.94
As2Cd1Sn1,2.29
As2Cd1Ge1,3.02
As1Bi1Pb1Sb1,9.0
As1Bi1Pb1,9.0
As0.15Bi0.15Nb3Sn0.7,18.07
Am0.01Si2Th1,2.66
Al1Zr3,0.73
Al2Zr1,0.35
As1Ge1,3.5
As0.15Ga0.15Nb3Sn0.7,18.01
As1Pb1,8.4
As0.15Nb3Sn0.7Tl0.15,17.98
As0.15Nb3Sn0.85,17.98
As0.15Nb3Pb0.15Sn0.7,18.05
As2Mo1,0.41
As0.15In0.15Nb3Sn0.7,17.99
As2Pd5,0.46
As1Pd2,0.6
As1Pd2,1.7
As1Sn1,4.1
As0.25Se0.75Y1,0.78
As1Rh1,0.58
As2W1,0.9
Au1Ga1,1.2
Au5Ca1,0.34
Au0.1C1.3Y0.9,10.1
Au2Bi1,1.84
Au1Be1,0.91
Au1Be1,2.64
Au5Ba1,0.4
Au0.2B5Mo1.8,4.5
Au1In1,0.6
Au1In2,0.22
Au0.41Ge0.59,2.2
Au0.5Ge0.5,3.6
Au1Ge1,2.7
Au1Ga2,1.9
Au1Ga2,1.12
Au0.25Nb0.75,11.2
Au1Nb3,1.2
Au1Nb3,11.5
Au1Nb3,11.22
Au0.22La0.78,3.4
Au0.24La0.76,4.0
Au0.33La0.67,3.2
Au0.2Sn0.8,2.38
Au1Sn1,1.25
Au5Sn1,1.1
Au1Sb2,0.58
Au0.5Rh0.4Ti0.91,3.0
Au0.167Pd0.166Te0.667,4.6
Au0.3Pd0.033Te0.666,2.6
Au0.95Pd0.5Ga2,1.75
Au1Pb3,4.4
Au1Pb2,3.1
Au2Pb1,1.18
Au0.7Nb3Pt0.3,12.5
Au1Zr3,0.92
Au1Zn3,1.21
Au0.23V0.77,0.66
Au1Tl1,1.92
Au0.27Tl0.73,2.04
Au1Tl2,4.25
Au1Th2,3.65
Au3Te5,1.62
Au1Ta4.3,0.51
B1C1Mo2,7.1
B5Hf0.2Nb1.8,3.6
B5Hf0.2Mo1.8,8.4
B1Hf1,3.1
B5Mo1.7Nb0.3,8.3
B5Mo0.2Nb1.8,4.3
B1Mo2,5.85
B2.5Mo1,7.45
B12Lu1,0.48
B2.5Nb1,6.4
B5Mo1.69Zr0.31,11.2
B5Mo1.9Zr0.1,8.9
B5Mo1.9Y0.1,8.0
B5Mo1.7V0.3,5.5
B5Mo1.7Ti0.3,7.1
B5Mo1.7Ta0.3,7.0
B1Mo1.75Ta0.25,3.05
B1Mo1.5Ta0.5,1.81
B5Mo1.8Sc0.2,8.8
B3Mo6S8Sn1,15.0
B5Nb1.8Zr0.2,5.9
B5Nb1.9Y0.1,9.3
B5Nb1.8V0.2,2.5
B5Nb1.9Ti0.1,4.0
B5Nb1.8Th0.2,7.0
B5Nb1.9Sc0.1,6.6
B5Nb1.8Ru0.2,6.0
B1Nb1,8.25
B3Ru7,2.58
B1Re2,4.6
B6Nd1,3.0
B1Ta1,4.0
B12Sc1,0.39
B6Th1,0.74
B1Ta1.5W0.5,0.25
B1Zr1,3.4
B12Yb0.01Zr0.99,4.4
B6Y1,6.5
B12Y1,4.7
B1W2,3.22
Ba0.1Pb3Sr0.9,1.75
Ba0.14O3W1,2.2
Ba0.13O3W1,1.9
Ba1Hg1,2.32
Ba1Bi3,5.8
Ba1,3.0
Ba1,4.5
Ba1,4.7
Ba1,4.9
Ba1,5.1
Be0.92Cu0.08,0.84
Ba1Rh2,6.0
Be5Ga1,5.8
Be6Ga1,6.0
Be8Ga1,5.7
Be13Ga1,5.6
Be22Ga1,5.7
Be0.858Cu0.142,0.56
Be0.89Cu0.11,1.11
Be12Mg1Re1,10.1
Be5Ir1,1.5
Be2Ga1,6.3
Be3Ga1,6.7
Be22Mo0.6Re0.4,8.3
Be22Mo0.3Re0.7,8.6
Be22Mo0.4Re0.6,8.6
Be22Mo1,2.545
Be0.96Ni0.04,0.76
Be0.934Ni0.066,0.88
Be0.9Ni0.1,0.58
Be0.9Ni0.1,2.38
Be21Ni5,0.72
Be8Nb5Zr2,5.2
Be2Nb1.5Ta1.5,1.7
Be2Nb3,2.3
Be2Nb1,2.15
Be17Nb2,1.47
Be0.86Pb0.14,9.7
Be22Os0.005Re1,9.8
Be0.8Os0.2,8.6
Be0.95Os0.05,0.57
Be2Os1,3.07
Be5Os1,9.2
Be22Re0.95W0.05,9.45
Be22Re0.95Os0.05,9.2
Be0.96Re0.04,9.5
Be0.957Re0.043,9.67
Be0.98Re0.02,9.75
Be22Re1,9.33
Be5Pt1,2.3
Be2Ru1,1.35
Be13Ru1,1.3
Be2Rh1,1.37
Be2Ta3,1.0
Be0.62Si0.38,9.0
Be0.95Ru0.05,1.47
Bi3Ca1,2.0
Bi0.1C1.45Y0.9,9.35
Bi1Co1,0.49
Bi0.54Cd0.2Sn0.26,3.69
Bi0.5Cd0.125Pb0.25Sn0.125,8.2
Bi0.28Dc0.19In0.53,5.85
Bi0.6Cd0.4,0.53
Bi0.15Ge0.15Nb3Sn0.7,17.75
Bi0.15Ga0.15Nb3Sn0.7,18.04
Bi1Cu1,1.4
Bi1Cu1,2.2
Bi2Cs1,4.75
Bi1In1,7.95
Bi0.015In0.985,3.725
Bi0.019In0.981,3.86
Bi0.02In0.98,3.845
Bi0.025In0.975,4.07
Bi0.05In0.95,4.65
Bi0.1In0.9,5.05
Bi0.343In0.657,5.55
Bi3In5,4.2
Bi1In2,5.87
Bi1In2,5.6
Bi1Li1,2.455
Bi2K1,3.57
Bi2K1,3.58
Bi2Ir1,3.96
Bi0.15In0.15Nb3Sn0.7,18.01
Bi1Ni1,4.25
Bi3Ni1,4.06
Bi0.15Nb3Sn0.7Tl0.15,18.12
Bi0.15Nb3Sn0.85,18.23
Bi1Nb3,4.5
Bi1Na1,2.25
Bi3Mo1,3.7
Bi0.575Pb0.425,8.03
Bi0.625Pb0.375,8.05
Bi0.07Pb0.93,7.7
Bi0.1Pb0.9,7.95
Bi0.2Pb0.8,8.15
Bi0.23Pb0.77,7.8
Bi0.26Pb0.74,8.3
Bi0.3Pb0.7,8.63
Bi0.35Pb0.65,8.7
Bi0.45Pb0.55,8.4
Bi0.5Pb0.5,8.4
Bi0.65Pb0.35,8.8
Bi1Pd1Se1,1.0
Bi0.4Pd0.6,4.0
Bi2Pd1,1.73
Bi2Pd1,4.25
Bi0.5Pb0.25Sn0.25,8.5
Bi0.525Pb0.32Sn0.155,8.68
Bi1Pb1Sb1,8.9
Bi0.25Pb0.75,6.9
Bi0.45Pb0.55,7.0
Bi1Re2,2.2
Bi2Rb1,4.25
Bi1Pt1Te1,1.15
Bi1Pt1Se1,1.45
Bi2Pt1,0.155
Bi1Pd1Te1,1.2
Bi1Ru1,5.7
Bi0.8Rh0.2,2.7
Bi3Rh1,3.2
Bi1Rh1,2.06
Bi3Te1,1.0
Bi3Sr1,5.7
Bi0.4Sn0.6,7.34
Bi1Sn1,3.8
Bi1Sn1,4.2
Bi1Sn1,3.72
Bi0.5Sn0.5,0.788
Bi0.6Sn0.4,7.0
Bi0.57Sn0.43,2.25
Bi3Sn1,3.77
Bi2Y3,2.25
Bi0.85Tl0.15,6.23
Bi0.26Tl0.74,4.4
Bi5Tl3,6.4
Bi0.86Tl0.14,6.5
C1.35Ca0.1Y0.9,10.5
Bi0.3Zr0.7,1.51
Bi1Zr3,2.84
Bi3Zn1,0.87
C3Er0.2Th1.8,8.2
C3Er0.1Th1.9,6.8
C3Er1Th1,4.6
C3Er0.8Th1.2,7.0
C3Er0.6Th1.4,8.1
C3Er0.4Th1.6,8.2
C8Cs1,0.135
C1.45Cr0.1Y0.9,12.4
C1Hf0.15Mo0.85,9.0
C0.75Hf0.05Mo0.95,14.2
C1.35Ge0.1Y0.9,10.6
C1.5Ge3La5,3.3
C1Ga1Mo2,4.1
C1Ir1Mo3,3.2
C1Ir2Mo3,1.8
C3Ho0.2Th1.8,5.4
C3Ho0.4Th1.6,5.5
C3Ho0.6Th1.4,5.2
C1.45La0.5Th0.5,14.2
C13La1,4.8
C1.3La1,8.3
C3La2,11.0
C1.58La1,9.6
C2La1,1.44
C8K1,0.55
C1Ir2W3,2.1
C0.64Mo1,8.0
C0.69Mo1,12.1
C1Mo2,3.45
C1Mo2,10.8
C1Mo1,9.26
C1Mo1,14.3
C2Lu1,3.33
C1.5La0.9Th0.1,12.9
C0.5Mo0.17Zr0.42,9.5
C1.45Mo0.1Y0.9,13.8
C1Mo0.83Ti0.17,10.2
C1Mo0.85Ta0.15,8.9
C0.6Mo4.8Si0.3,7.6
C1Mo0.9Ru0.1,13.6
C1Mo0.9Re0.1,13.8
C2Mo1Re1,3.8
C1Mo3Pt2,1.1
C0.4Mo0.6,11.2
C0.42Mo1,2.8
C1Nb2,9.1
C1Nb1,11.1
C0.98Nb1,11.56
C1Nb1,12.0
C0.78N0.22Th1,5.6
C0.2N0.8Nb0.8V0.2,5.5
C0.25N0.75Nb0.85Ti0.15,17.8
C0.026N0.974Nb1,17.2
C1N1Nb1,17.3
C0.35N0.65Nb1,17.8
C2Pt1U2,1.47
C0.6Pd1,1.3
C1Os2W3,2.9
C1.35Nb0.1Y0.9,10.8
C1Nb0.4Ta0.6,10.0
C1Ru1,2.04
C1Rh1,3.4
C1Rh1,1.6
C2Re1W1,3.8
C0.04Re0.96,1.98
C8Rb1,0.023
C1Pt2W3,1.2
C1Ta1,10.35
C1.35Sn0.1Y0.9,10.2
C1.35Si0.1Y0.9,11.3
C3Sc1.4Th0.6,5.4
C1.35Ru0.1Y0.9,11.2
C1.55Th0.3Y0.7,17.0
C1.45Th1,4.1
C1Tc1,3.85
C1Ta0.5W0.5,10.1
C1Ta0.45W0.55,10.5
C1Ta0.4Ti0.6,4.8
C1Ta1,5.09
C1Ta2,3.26
C1.35Ti0.1Y0.9,10.7
C1.5Ti0.3Y0.7,12.9
C1W2,5.2
C1W2,4.05
C1W2,3.35
C0.46W0.54,9.0
C0.55W0.45,8.1
C0.5W0.5,10.0
C1.45V0.1Y0.9,11.5
C1.45Y0.9Zn0.1,13.0
C1.45Y1,11.5
C3Y2,11.5
C2Y1,3.75
C1.55W0.1Y0.9,14.5
Cd1,0.517
Ca1Tl3,2.04
Ca1Si2,1.58
Ca1Hg5,1.7
Ca1Hg3,1.6
Ca1Hg1,1.6
Cd0.86Mg0.14,0.145
Cd0.9Mg0.1,0.138
Cd0.96Mg0.04,0.24
Cd0.1In0.9La3,9.55
Cd0.97Hg0.03,0.53
Cd1Hg1,2.15
Cd0.9Ge0.1,1.7
Cd0.06Cu0.94Se2,1.3
Cd0.04Cu0.96S2,1.3
Cd1,0.53
Cd0.1Pd0.9,6.92
Cd1Mo5S6,3.7
Cd1Mo5S6,2.4
Cd0.6Mg0.4,0.016
Cd0.7Mg0.3,0.105
Cd0.75Mg0.25,0.16
Cd0.8Mg0.2,0.185
Cd0.2Zn0.8,0.628
Cd0.002Zn0.998,0.78
Cd0.02Zn0.98,0.675
Cd0.1Tl0.9,3.5
Cd0.17Tl0.83,2.3
Cd0.18Sn0.72,3.65
Cd0.18Pb0.32Sn0.5,7.5
Ce1Ir3,3.34
Ce1Co1.67Rh0.33,0.47
Ce1Co1.67Ni0.33,0.46
Ce1Co2,1.5
Ce1,1.7
Ce1Pt0.1Ru1.9,4.08
Ce0.02La0.98,2.6
Ce0.16La0.84,8.7
Ce1Ir5,1.82
Ce0.8Tb0.2Ru2,2.6
Ce0.12Si1V2.88,15.32
Ce1Ru2Sc1,6.2
Ce1Ru2,6.18
Ce1Pt0.2Ru1.8,3.4
Co1La3,4.28
Co0.004Ir0.996,0.046
Co0.03In0.97,3.95
Co1Hf2,0.56
Co0.5Fe0.5U6,3.0
Co0.5Fe0.5Ti1,3.3
Co0.02Cu0.98Rh2Si4,3.8
Co0.5Ni0.5Zr2,3.1
Co0.96Mo0.04U6,1.5
Co0.002Mo0.815Re0.185,5.8
Co0.5Mn0.5U6,2.55
Co0.92Mn0.08U6,2.2
Co0.6Rh0.4Zr2,8.0
Co0.94Rh0.06U6,2.0
Co0.05Rh0.04Ti0.91,4.0
Co0.5Rh0.5Si2,2.0
Co0.85Ni0.15Zr2,6.0
Co1Ti1,0.71
Co3Th7,1.83
Co1Ta1.75Zr0.25,0.9
Co1Ta2,0.82
Co0.02Sn0.98Ta3,4.0
Co1Si2,1.22
Co1Sc0.125Zr1.875,2.89
Co1Zr2,5.0
Co0.28Y0.72,0.34
Co1Y3,0.34
Co1U6,2.3
Co1U1,1.7
Co1Ti2,3.44
Cr0.2Fe0.8U6,3.3
Cr0.008Cu1Rh1.992S4,3.9
Cr1,3.1
Co0.1Zr0.9,3.9
Co1Zr3,3.9
Co1Zr2,7.0
Cr0.72Os0.28,3.95
Cr0.67Os0.33,1.03
Cr0.8Os0.2,2.5
Cr0.071Nb0.929,6.95
Cr0.835Ir0.165,0.77
Cr0.82Ir0.18,0.75
Cr3Ir1,0.168
Cr0.72Ru0.28,3.468
Cr0.05Rh0.04Ti0.91,3.75
Cr0.75Rh0.25,0.072
Cr0.38Re0.62,4.1
Cr0.025Ti0.975,3.5
Cr1Ti3,3.7
Cr0.03Sc0.97,3.1
Cs0.3Mo1S2,6.8
Cr0.099V0.901,3.3
Cr0.1V0.9,3.21
Cr0.017U0.983,0.75
Cr0.1Ti0.3V0.6,5.6
Cr0.011Ti0.967V0.022,3.6
Cu0.3La0.7,3.5
Cu1La1,5.85
Cu4K1S3,1.4
Cu0.5Ge0.5,3.3
Cs0.32O3W1,1.12
Cu0.1Pb0.9,6.5
Cu3Na2S3,0.3
Cu1Mo4S5,11.0
Cu1Mo3S4,11.8
Cu1Mo3S4,10.8
Cu1.5Mo4.5S6,10.9
Cu1S4V2,4.45
Cu1S1Se1,1.5
Cu1S1,1.65
Cu1S2,1.56
Cu0.05Rh0.04Ti0.91,2.5
Cu1Rh1.95Se4Sn0.05,2.7
Cu1Rh2Se4,3.5
Cu1Rh2S4,4.8
Cu0.95Se2Zn0.05,2.45
Cu1Se1Te1,2.0
Cu1Se2,2.43
Cu0.81Sb0.19,0.07
Cu0.786Sb0.214,0.047
Cu0.844Sb0.156,0.067
Cu0.845Sb0.155,0.184
Cu2Sb1,0.085
Cu3Sb1,0.041
Cu3Sb1,1.8
Cu0.14Sn0.86,6.62
Cu0.1Sn0.9,6.8
Cu0.86Si0.14,0.058
D0.11Nb1D0.13Nb1,9.12
D0.018Nb0.982,9.23
Cu1Th2,3.44
Cu1Te2,1.3
Fe0.008La0.992,4.85
Ir1,0.051
Eu0.012La0.988,2.15
Er0.01La0.99,5.3
Dy0.01La0.99,3.8
D3.61Th1,8.35
Fe0.05Ni0.05Zr0.9,3.9
Fe0.75Ni0.25U6,1.4
Fe0.25Ni0.75U6,3.0
Fe0.5Ni0.5U6,2.1
Fe0.03Nb0.25Ti0.72,8.5
Fe0.04Nb0.1Ti0.86,7.4
Fe0.08Nb0.05Ti0.87,4.7
Fe0.5Mn0.5U6,2.8
Fe0.01La0.001Rh0.99,0.75
Fe0.01La0.01Rh0.98,0.75
Fe0.02Sc0.05Zr0.93,0.35
Fe0.05Rh0.04Ti0.91,3.9
Fe0.02Re0.98,1.6
Ga1,8.45
Ga1,7.85
Ga1,7.6
Ga1,3.07
Ga1,1.083
Fe0.1Zr0.9,1.0
Fe1Zr2,0.17
Fe1U6,3.9
Fe3Th7,1.86
Ga3Lu1,2.3
Ga1La3,5.84
Ga0.8In0.2V3,12.7
Ga0.3In0.7La3,9.25
Ga1Hf2,0.21
Ga0.8Ge0.2V3,13.6
Ga0.1Ge0.9,5.3
Ga1,8.5
Ga0.4Nb0.6,20.3
Ga1Nb3,14.5
Ga1Nb3,20.3
Ga3Nb5,1.35
Ga1N1,5.85
Ga0.5Mo5S6Sn1,13.3
Ga1Mo3,0.76
Ga2Mo1,9.5
Ga4Mo1,9.8
Ga0.5Si0.5V3,18.2
Ga0.25Si0.75V3,18.6
Ga1Sb1,5.9
Ga1Pt1,1.74
Ga2Pt1,1.9
Ga7Pt3,2.9
Ga0.1Pb0.9,6.33
Ga1Nb2.4V0.6,12.5
Ga0.15Nb3Sn0.7Tl0.15,18.14
Ga0.15Nb3Sb0.15Sn0.7,16.89
Ga0.15Nb3Pb0.15Sn0.7,18.11
Ga0.71V0.29,4.2
Ga5V2,3.55
Ga1V3,14.19
Ga1V3,15.4
Ga1V3,16.8
Ga1Si1V3,18.6
Gd0.09Ls0.91Os2,6.0
Gd0.005La0.995,3.7
Gd0.01La0.99,0.6
Ga3Zr5,3.85
Ga1Zr2,0.38
Ga2Y1,1.68
Ga1V1,16.45
Ga1V3,14.5
Ge1Ir1,4.7
Ge7Ir3,0.87
Ge0.1In0.9,6.2
Gd0.002Th0.998,0.714
Gd0.001Th0.999,1.11
Gd0.2Mo6Pb1S8,14.3
Ge1Nb2,1.9
Ge1Nb3,6.28
Ge0.23Mo0.77,2.16
Ge1Mo3,1.6
Ge2La1,1.49
Ge0.15Nb3Sn0.85,17.8
Ge0.15Nb3Pb0.15Sn0.7,17.82
Ge1Nb3,17.0
Ge1Nb3,22.1
Ge0.72Nb3.28,5.5
Ge0.55Nb3.45,4.9
Ge0.22Nb1,5.3
Ge0.1Si0.9V3,14.4
Ge2Sc1,1.3
Ge0.3Sb0.7,3.3
Ge3Rh5,2.12
Ge1Rh1,0.96
Ge0.5Pt0.5,1.4
Ge1Pt1,0.4
Ge0.6Pd0.4,3.1
Ge1V3,6.7
Ge1V3,6.9
Ge1V3,6.1
Ge1Ta3,8.0
H0.33Nb0.67,7.28
H1.33N0.33O3W1,3.2
Ge1.62Y1,2.4
Ge2Y1,3.8
H0.11S2Ta1,4.2
H0.81Pd1,2.5
H0.87Pd1,4.3
H0.94Pd1,6.6
Hf0.5Nb0.5,9.5
Hf0.33Nb0.67,17.0
Hf0.15Nb0.85,9.85
Hf1N1,8.83
Hf1Mo2,1.0
Hf1Mo2,0.076
Hf1Mo2,0.065
Hf0.9Mo0.1,2.5
H15Th4,8.45
Hf0.875Re0.125,1.7
Hf1Os2,2.69
Hf2Ni1,0.87
Hf0.36Nb0.62Zr0.02,7.75
Hf0.33Nb0.33V0.33,6.6
Hf0.05Rh0.04Ti0.91,1.7
Hf2Rh1,2.02
Hf1Rh1,1.73
Hf0.025Re0.975,7.3
Hf0.14Re0.86,5.86
Hf1Re2,5.61
Hg8K1,3.42
Hg1In1,3.81
Hg1,4.154
Hf0.99Zr0.01,0.37
Hf0.5V2Zr0.5,10.1
Hf0.6V2Zr0.4,9.9
Hf1V2.3,9.2
Hf1V2,9.2
Hf1Tc2,5.6
Hf0.2Ta0.8,6.9
Hg3Mg1,0.48
Hg1Mg1,0.48
Hg1Mg1,1.39
Hg2Mg1,4.0
Hg3Li1,1.7
Hg2K1,1.2
Hg3K1,3.18
Hf4K1,3.27
Hg1Sn1,4.2
Hg2Na1,1.62
Hg4Na1,3.05
Hg1Mg3,0.16
In0.5La3Tl0.5,8.9
In0.8La3Sn0.2,7.8
In1La3,9.83
In1La3,9.54
In3La1,0.7
In1,3.409
Hg3Zr1,3.28
Hg0.698Tl0.302,3.888
Hg0.714Tl0.286,3.875
Hg0.97Tl0.03,4.109
In0.11O3W1,2.8
In0.5Nb3Zr0.5,6.4
In0.15Nb3Sb0.15Sn0.7,16.09
In0.15Nb3Sn0.85,18.26
In1Nb3,8.0
In1Nb3,7.6
In0.488Na0.025Pb0.488,6.0
In1N1,3.38
In3Lu1,0.24
In0.97Pd0.03,4.45
In1Pd1,0.7
In0.1Pb0.9,6.8
In0.087Pb0.913,7.035
In0.6Pb0.4,6.36
In0.913Pb0.087,4.2
In0.961Pb0.039,3.64
In0.955Pb0.045,3.69
In0.88Sn0.12,5.03
In0.7Sn0.3,7.3
In0.5Sn0.5,6.9
In0.75Sn0.25,5.95
In0.2Si0.8V3,16.2
In2Sb1Te2,1.06
In1Sb1Sn1,2.5
In0.25Sb0.75,4.1
In1Sb1,2.1
In3Ru1,2.68
In0.005Tl0.995,2.418
In3Te4,1.25
In1Te1,2.2
In0.012Sn0.988,3.69
In0.05Sn0.95,3.625
In0.5Sn0.5,7.45
Ir2Lu1,2.47
Ir3Lu1,2.89
Ir3La7,2.24
Ir2La1,0.48
Ir3La7,2.32
Ir5La1,2.13
Ir1,0.113
In3Y1,0.78
In1V3,13.9
In0.1Tl0.9,3.27
Ir0.25Mo0.75Nb2.25Pt0.75,6.5
Ir1Mo3Nb1Pt1,5.82
Ir1Mo3Nb3Pt1,6.13
Ir0.29Mo0.41Nb0.3,8.7
Ir1Mo1,1.85
Ir1Mo1,8.8
Ir0.26Mo0.74,6.7
Ir1Mo3,8.8
Ir3Lu7,0.78
Ir1Lu2,0.84
Ir0.05Nb3Rh0.95,2.38
Ir0.02Nb3Rh0.98,2.43
Ir0.1Nb0.9,2.3
Ir0.34Nb0.66,2.25
Ir1Nb3,2.07
Ir1.05Nb0.95,4.75
Ir1.15Nb0.85,4.6
Ir0.3Mo0.4Re0.3,9.5
Ir1.5O0.5Y1,2.4
Ir1Os1Y1,2.6
Ir0.825Ru0.1Os0.075,0.16
Ir0.73Os0.17Ru0.1,0.34
Ir0.75Os0.05Rh0.2,0.055
Ir0.18Os0.47Rh0.35,0.55
Ir0.75Os0.25,0.4
Ir0.5Os0.5,0.98
Ir0.265O0.085Zr0.65,2.3
Ir0.287O0.14Ti0.573,5.5
Ir0.984Ni0.016,0.052
Ir0.2Ru0.05Zr0.75,6.8
Ir0.125Rh0.125Zr0.75,10.2
Ir0.05Rh0.04Ti0.91,4.0
Ir0.98Re0.02,1.7
Ir0.775Pt0.175Rh0.05,0.032
Ir0.72Pt0.08Rh0.2,0.03
Ir0.8Pt0.2,0.046
Ir0.9Pt0.1,0.066
Ir0.83Pd0.045Pt0.125,0.037
Ir2.5Sc1,2.46
Ir2Th1,6.5
Ir3Th1,4.71
Ir5Th1,3.93
Ir0.5Te0.5,3.0
Ir1Te3,1.18
Ir2Sr1,5.7
Ir1Sn2,0.78
Ir0.2Si0.05Zr0.75,6.2
Ir0.33V2.67,1.39
Ir0.04Ti0.96,1.6
Ir0.1Ti0.9,4.3
Ir1Ti3,4.97
Ir3Th7,1.52
Ir1Th1,0.37
Ir1Zr3,2.13
Ir1Zr2,7.23
Ir2Zr1,4.1
Ir0.7Y0.3,2.16
Ir2Y3,1.61
Ir2Y1,2.18
Ir3Y1,3.5
Ir0.25W0.75,3.82
Ir0.28W0.72,4.46
La0.98Lu0.02,4.643
La0.99Lu0.01,5.6
K0.3O3Re1,3.6
K0.28Mo1S2,6.2
K0.4Mo1S2,5.5
K0.4Mo1S2,6.1
K0.5Mo1O3,4.2
Ir0.25Zr0.75,8.0
Ir0.1Zr0.9,5.5
La1Pt2,0.46
La0.98Pr0.02Ru2,1.92
La0.99Pr0.01,5.3
La1Pb3,4.07
La1Os2,6.5
La1,3.3
La1N1,1.35
La0.2Mo6.35Pb0.8S8,13.2
La1Mg2,1.05
La0.55Lu0.45,2.2
La0.8Lu0.2,3.4
La1Si2,2.3
La5Si3,1.6
La2.4Se4Y0.6,3.92
La3Se4,7.8
La1Se1,1.02
La2.4S4Y0.6,4.77
La3S4,8.06
La1S1,0.84
La1Ru2,4.1
La7Rh3,2.58
La1Rh5,1.62
La1Rh3,2.6
La0.7Y0.3,1.85
La0.75Y0.25,2.5
La0.85Y0.15,3.06
La0.95Y0.05,5.4
La1Tl3,1.57
La3Tl1,8.86
La3Te4,5.3
La1Te1,1.48
La0.84Sn3Tm0.16,3.3
La1Sn3,6.5
La0.06Si1V2.94,15.92
La0.006Si1V2.994,16.48
Lu0.275Rh0.725,1.27
Lu1Rh5,0.49
Lu1Os2,3.49
Li1Pb1,7.2
Li0.3O3W1,2.2
Li0.4Mo1S2,3.7
La1Zn1,1.04
La0.99Y0.01,5.5
La0.15Y0.85,0.1
La0.35Y0.65,0.4
La0.48Y0.52,1.0
La0.6Y0.4,1.29
Mg2Zn11,0.88
Mg1Zn1,0.93
Mg2Zn3,0.76
Mg1Zn1,0.92
Mg7Zn3,0.28
Mg0.47Tl0.53,2.75
Mg0.1Pb0.9,6.61
Mg2Pb1,5.6
Mg0.9Mo5.1S6,2.5
Lu1Se1,0.56
Lu1S1,1.1
Lu1Ru2,0.86
Mn1U6,2.32
Mn0.01Ti0.99,1.2
Mn0.02Ti0.98,1.9
Mn0.14Ti0.86,2.55
Mn0.21Si1V2.79,15.5
Mn0.03Si1V2.97,16.25
Mn0.05Rh0.04Ti0.91,2.4
Mn0.33Ni0.67U6,1.6
Mn0.67Ni0.33U6,2.7
Mo0.3Nb0.1Re0.6,10.1
Mo0.725Nb0.061Re0.187,5.0
Mo0.02Nb0.98,8.58
Mo0.05Nb0.95,8.0
Mo0.1Nb0.9,6.38
Mo0.15Nb0.85,5.3
Mo0.2Nb0.8,4.23
Mo0.25Nb0.75,3.47
Mo0.4Nb0.6,0.6
Mo0.7Nb0.3,0.016
Mo1Na0.3S2,4.1
Mo1N1,14.8
Mo6.35Pb1S8,12.6
Mo6Pb0.92S7.5,15.2
Mo5Pb1S7,12.5
Mo5.1Pb1S6,14.4
Mo5.1Pb0.9S6,13.2
Mo0.15Pa0.85,3.08
Mo4P3,2.5
Mo3P1,5.31
Mo3Os1,12.5
Mo0.62Os0.38,5.65
Mo1Os2,5.2
Mo0.2Nb0.2Re0.6,7.6
Mo0.55Pt0.05Re0.425,11.25
Mo0.5Pt0.05Re0.45,5.32
Mo0.72Pt0.28,5.6
Mo0.8Pt0.2,4.56
Mo0.815Pt0.185,4.62
Mo0.85Pt0.15,8.8
Mo0.93Pt0.17,2.8
Mo0.5Pd0.5,3.52
Mo6.35Pb0.7S8Sn0.36,10.0
Mo6.35Pb0.9S8Sn0.12,11.0
Mo6.3Pb1S6Se2,5.4
Mo6Pb1S7,14.0
Mo0.42Re0.58,8.4
Mo3Re1,9.8
Mo0.5Re0.5,6.5
Mo0.5Re0.5,11.6
Mo0.52Re0.48,11.1
Mo0.57Re0.43,14.0
Mo0.6Re0.4,10.6
Mo0.66Re0.34,11.8
Mo0.815Re0.185,8.27
Mo0.865Re0.135,6.1
Mo0.9Re0.1,2.97
Mo1Rb0.3S2,6.25
Mo0.39Ru0.61,6.9
Mo1Ru1,10.5
Mo0.6Ru0.4,7.0
Mo0.6Ru0.4,8.7
Mo0.61Ru0.39,7.18
Mo0.05Rh0.04Ti0.91,3.3
Mo0.75Rh0.25,6.6
Mo1Rh1,1.97
Mo0.7Re0.3,15.0
Mo0.23Re0.77,9.25
Mo0.28Re0.72,6.5
Mo1Re3,9.89
Mo3Se4,5.8
Mo3Se4,6.3
Mo3Sb4,2.1
Mo3Sb7,2.31
Mo5S6Zn1,3.0
Mo1S2Sr0.2,5.6
Mo3S4Sn0.6,14.2
Mo5S6Sn1,13.4
Mo6S7Sn1,13.0
Mo3S2Se2,3.3
Mo3S1Se3,3.4
Mo0.25Ru0.75,2.6
Mo0.91Ti0.09,2.95
Mo1Te2,0.3
Mo0.05Tc0.95,10.8
Mo0.1Tc0.9,13.4
Mo0.25Tc0.75,15.8
Mo0.3Tc0.7,12.0
Mo0.4Tc0.6,14.7
Mo0.45Tc0.55,14.0
Mo0.5Tc0.5,14.0
Mo0.59Si0.41,1.34
Mo0.77Si0.23,1.7
Mo3Si1,1.402
Mo2Zr1,0.125
Mo0.15V0.85,2.28
Mo0.3V0.7,0.76
Mo0.5V0.5,0.11
Mo0.006U0.944,1.2
Mo0.12U0.88,1.85
Mo0.14U0.86,2.02
Mo0.18U0.82,2.113
Mo0.22U0.78,2.06
Mo0.3U0.7,1.97
Mo0.1Ti0.9,3.25
Mo0.16Ti0.84,4.246
N1Nb1,15.2
N1Nb1,15.23
N1Nb1,14.5
N0.003Nb0.997,9.12
N1Nb2,8.6
N0.48Nb1,5.5
N0.8Nb1,8.9
N0.84Nb1,13.5
N0.92Nb1,16.5
N1Nb1,5.1
N1Nb1,16.0
Mo2Zr1,4.75
N0.99Ti1,4.35
N1Ti1,5.49
N1Th1,3.3
N1S1,0.26
N1Nb0.9V0.1,6.6
N0.85Nb0.66Ti0.34,17.61
N0.88Nb0.256Ti0.744,14.72
N0.9Nb0.114Ti0.886,10.1
N0.998Nb1O0.002,17.3
N5Nb4,8.5
N1Nb1,17.3
Nb3P1,2.0
Nb0.6Os0.4,1.85
Nb0.5Os0.5,2.86
Nb1Os2,2.52
Nb3Os1,1.05
Nb1O1,1.5
Na0.1Pb0.9,5.93
Na1Pb3,5.62
Na0.2O3W1,0.55
N1Zr1,10.7
N0.75V1,2.3
N1V1,8.5
Nb0.5Re0.5,3.8
Nb0.9Re0.1,4.5
N0.62Pt0.38,4.21
Nb0.9Pt0.1,2.5
Nb0.6Pd0.4,1.6
Nb0.6Pd0.4,2.47
Nb0.9Pd0.1,3.5
Nb3Pb0.15Sn0.85,18.16
Nb0.67Pb1S3Ta0.33,2.01
Nb1Pb1S3,2.66
Nb0.45Rh0.55,3.07
Nb0.48Rh0.52,3.76
Nb0.6Rh0.4,4.21
Nb3Rh1,2.79
Nb0.85Rh0.15,3.0
Nb0.9Rh0.1,2.8
Nb0.11Re0.78Ta0.11,8.8