composition,critical_temperature_tc
Yb1Rh1.4Sn4.6,8.6
La1Ru1.5Sn4.5,3.9
Y3Ru4Ge13,1.7
Lu3Ru4Ge13,2.3
Y3Os4Ge13,3.9
Lu3Os4Ge13,3.6
Er1Rh1.1Sn3.6,1.36
Lu1Rh1.2Sn4,4.0
Y1Rh1.1Sn3.1,1.3
Tm2Fe3Si5,1.3
Y2Re3Si5,1.76
Sc5Co4Si10,5.0
Sc5Rh4Si10,8.54
Sc5Ir4Si10,8.46
Y5Ir4Si10,3.0
Lu5Ir4Si10,3.76
Y5Ir4Si10,2.62
Y5Os4Ge10,8.68
Au0.098Pd0.02Ga2,1.51
Au0.93Pd0.07Ga2,1.773
Au0.85Pd0.15Ga2,1.79
Au0.499Ga0.501,1.17
Au0.427Ga0.573,1.378
Au0.388Ga0.612,1.355
Au0.328Ga0.672,1.668
Au0.293Ga0.707,1.63
Au0.281Ga0.719,1.587
Au0.278Ga0.722,1.615
Au0.2Ga0.8,1.587
Y0.2Lu0.8Ir4B4,3.04
Y0.3Lu0.7Ir4B4,2.98
Y0.4Lu0.6Ir4B4,3.07
Y0.5Lu0.5Ir4B4,3.21
Y0.6Lu0.4Ir4B4,3.06
Ho1Ir3.6Rh0.4B4,1.9
Er1Ir3.6Rh0.4B4,1.83
Tm1Ir3.6Rh0.4B4,1.48
Lu1Ir3.6Rh0.4B4,2.67
Sc0.1Y0.9Ir3.6Rh0.4B4,3.45
Sc0.2Y0.8Ir3.6Rh0.4B4,3.01
Sc0.25Y0.75Ir3.6Rh0.4B4,2.92
Sc0.3Y0.7Ir3.6Rh0.4B4,3.09
Sc0.5Y0.5Ir3.6Rh0.4B4,3.01
Dy1Ir2Rh2B4,4.64
Ho1Ir2Rh2B4,6.41
Er1Ir2Rh2B4,7.37
Tm1Ir2Rh2B4,4.38
Lu1Ir2Rh2B4,3.08
Y1Ir2Rh2B4,8.92
Tb1Os1.5Sn2.6,1.4
Ho1Os1.2Sn2.5,1.4
Er1Os1.1Sn2.7,1.3
Pb1Mo6S8,13.5
Pb1Mo6S7.9Se0.1,12.7
Pb1Mo6S7.5Se0.5,10.6
Pb1Mo6S7Se1,8.4
Pb1Mo6S6Se2,5.4
Pb1Mo6S5Se3,4.3
Pb1Mo6S4Se4,3.2
Pb1Mo6S4Se5,3.64
Pb1Mo6S2Se6,4.92
Pb1Mo6S1Se7,7.13
Pb1Mo6Se8,3.54
Pb0.9Yb0.1Mo6Se8,12.3
Pb0.8Yb0.2Mo6Se8,12.2
Pb0.7Yb0.3Mo6Se8,10.2
Pb0.6Yb0.4Mo6Se8,9.2
Pb0.5Yb0.5Mo6Se8,8.7
Pb0.4Yb0.6Mo6Se8,7.9
Pb0.3Yb0.7Mo6Se8,7.1
Pb0.2Yb0.8Mo6Se8,6.7
Pb0.1Yb0.9Mo6Se8,6.3
Yb1Mo6Se8,6.0
Mo6Se8,6.38
Mo6Se7.85S0.15,6.3
Mo6Se7.7S0.3,5.83
Mo6Se7.5S0.5,5.45
Mo6Se7.3S0.7,5.03
Mo6Se7S1,4.48
Mo6Se7.9Te0.1,6.3
Mo6Se7.7Te0.3,6.66
Mo6Se7.5Te0.5,6.69
Mo6Se6.5Te1.5,6.23
Mo6Se6Te2,5.88
Mo6Se7.5Cl0.5,6.33
Mo6Se7Cl1,6.52
Mo6Se6.5Cl1.5,6.49
Mo6Se6Cl2,6.39
Mo5.8Ru0.2Se8,6.21
Mo5.6Ru0.4Se8,5.69
Mo5.5Ru0.5Se8,5.43
Mo5Ru1Se8,3.7
Mo6Se8,6.2
La1Mo6Se8,11.3
La1Mo6Se8,10.8
La1Mo6S8,5.8
Cu1.8Mo6S8,10.0
Cu1.8Mo6S8,10.5
Sn1Mo6S8,13.4
Sn1Mo6S8,11.8
Pb1Mo6S8,14.4
Pb1Mo6S8,12.6
Pb1Mo6S8,13.3
Lu4.5Er0.5Ir4Si10,2.74
Lu4.5Ho0.5Ir4Si10,1.89
Lu4.5Dy0.5Ir4Si10,1.0
Lu5Ir3.44Rh0.56Si10,5.72
Lu5Ir3.12Rh0.88Si10,5.68
Lu5Ir3.8Co0.2Si10,5.52
Lu4.975Sc0.025Ir4Si10,4.0
Lu4.95Sc0.05Ir4Si10,4.5
Lu4.9Sc0.1Ir4Si10,5.77
Sc5Ir4Si10,8.23
Lu5Rh4Si10,3.91
Lu5Ir4Si10,3.88
Lu4.9Sc0.1Ir4Si10,5.9
Lu5Ir3.12Rh0.88Si10,5.8
Ce1Cu1.95Si2.01,0.62
Ce1Cu2Si2,0.65
Ce1Cu2Si1.98Ge0.02,0.54
Ce1Cu2Si1.96Ge0.04,0.37
Ce1Cu2Si1.92Ge0.08,0.27
Ce1Cu2Si1.88Ge0.12,0.2
Ce1Cu2Si1.8Ge0.2,0.19
B2Mg1,38.1
Y2C2Br2,5.0
Y2Cu2I2,10.1
Mg1Cu1Ni3,7.2
Hf1V2,9.27
V2Hf0.95Y0.05,9.22
V2Hf0.9Y0.1,9.19
V2Hf0.9Ti0.1,9.19
V2Hf0.8Ti0.2,8.8
V2Hf0.9Nb0.1,9.93
V2Hf0.84Nb0.16,10.67
V2Hf0.9Ta0.1,9.82
V2Hf0.87Ta0.13,10.45
Y2I2C2,9.85
Y2I1.75Br0.25C2,10.35
Y2I1.6Br0.4C2,11.2
Y2I1.5Br0.5C2,11.1
Y2I1.4Br0.6C2,10.5
Y2I1.3Br0.7C2,10.5
Y2I1.25Br0.75C2,10.05
Y2I1.2Br0.8C2,9.6
Y2I1Br1C2,7.9
Y2I0.75Br1.25C2,7.0
Y2I0.6Br1.4C2,6.4
Y2I0.5Br1.5C2,6.0
Y2I0.4Br1.6C2,5.8
Y2I0.25Br1.75C2,5.5
Y2Br2C2,5.05
Y2I1.75Cl0.25C2,10.7
Y2I1.5Cl0.5C2,8.25
Y2Br1.75Cl0.25C2,4.7
Y2Br1.5Cl0.5C2,4.4
Y2Br1.25Cl0.75C2,4.15
Y2Br1Cl1C2,3.85
Y2Br0.75Cl1.25C2,3.7
Y2Br0.5Cl1.5C2,3.25
Y2Br0.25Cl1.75C2,2.85
Y2Cl2C2,2.3
Ce1Co1In5,2.0
Ce1Co1In5,2.2
Ce1Ir1In5,1.3
Ce1Rh0.25Ir0.75In5,0.64
Ce1Co0.5Ir0.5In5,0.64
Ce1Rh0.5Ir0.5In5,0.97
Ce1Co0.5Rh0.5In5,1.6
B3Be1.09,0.72
Ge2U1,0.8
Ce1Rh2Si2,0.43
Ce1Pd2Si2,0.52
B2Mg1,39.8
Sr1Ti0.97Zr0.03O3,0.3
Ga1,8.2
Lu5Ir4Si10,3.77
Er1Rh4B4,7.8
Lu1Rh4B4,8.61
Er1Pd2Sn1,1.17
Er0.95Y0.05Pd2Sn1,1.26
Er0.9Y0.1Pd2Sn1,1.6
Er0.8Y0.2Pd2Sn1,2.08
Er0.6Y0.4Pd2Sn1,2.59
Er0.4Y0.6Pd2Sn1,3.66
Er0.2Y0.8Pd2Sn1,4.38
Y1Pd2Sn1,5.26
Zr1Ir1Si1,2.04
Hf1Ir1Si1,3.5
Zr1Os1Si1,1.72
Mo0.82Re0.18,8.5
Mo0.75Re0.25,10.0
Mo0.7Re0.3,10.5
Mo0.65Re0.35,10.2
Mo0.57Re0.43,10.0
Mo0.62Re0.38,11.5
U1Ni2Al3,0.9
Ca1Ga1Si1,4.3
Ca1Ga0.74Si1.26,3.5
Sr1Ga0.74Si1.26,4.2
Ba1Ga0.78Si1.22,4.0
La1Ni1Ga2,1.97
Ho1Rh3.72Ru0.28B4,6.42
Ho1Rh3.6Ru0.4B4,6.42
Ho1Rh3.4Ru0.6B4,6.14
Ho1Rh3Ru1B4,6.35
Ho1Rh2.6Ru1.4B4,4.68
Ho1Rh2.4Ru1.6B4,1.6
B2Mg1,36.0
Yb1Fe4Al8,50.0
Mo3Sb7,2.08
Mg0.95Zr0.05B2,37.7
C6Ir4O2,2.0
Br2,1.4
S1,12.0
O2,0.65
N0.8H2.4Na1Rb2C60,15.2
N0.9H2.7Na1Rb2C60,12.1
B2Mg1,31.0
Ga5V2,3.59
Sr1Ga0.5Si1.5,3.5
Sr1Ga0.55Si1.45,3.4
Sr1Ga0.6Si1.4,2.98
Sr1Ga0.65Si1.35,2.58
Sr1Ga0.7Si1.3,3.17
Sr1Ga0.75Si1.25,3.67
Sr1Ga0.8Si1.2,4.24
Sr1Ga0.9Si1.1,4.73
Sr1Ga1Si1,5.1
Sr1Ga1.1Si0.9,5.04
Sr1Ga1.2Si0.8,4.75
Sr1Ga1.3Si0.7,3.52
Mo0.816Zr0.034B2,8.14
Mo0.8448Zr0.0352B2,8.11
Mo0.8736Zr0.0364B2,7.92
Mo0.9216Zr0.0384B2,7.51
Mo0.96Zr0.04B2,5.74
Sr1Al1Si1,4.2
Ba1Ga1Si1,3.9
Lu1Ni2B2C1,15.8
Ca1Al1Si1,7.8
Sr1Al1Si1,5.1
Ca1Al1.4Si0.6,4.6
Ca1Al1.3Si0.7,4.5
Ca1Al1.25Si0.75,4.4
Ca1Al1.2Si0.8,5.21
Ca1Al1.1Si0.9,6.63
Ca1Al0.9Si1.1,5.57
Ca1Al0.8Si1.2,4.05
B2Nb0.84,9.1
Y1Ni1.9Pt0.1B2C1,13.7
Y1Ni1.6Pt0.4B2C1,12.1
Er0.75Tb0.25Ni2B2C1,4.0
Er0.7Tb0.3Ni2B2C1,2.0
Er0.4Tb0.6Ni2B2C1,2.0
Y1Ni2B2C1,11.3
Er0.9Tb0.1Ni2B2C1,9.2
Er0.85Tb0.15Ni2B2C1,8.3
Er0.8Tb0.2Ni2B2C1,7.1
Er0.775Tb0.225Ni2B2C1,5.9
Er0.75Tb0.25Ni2B2C1,4.9
Y1Ni2B2C1,11.0
Er0.9Tb0.1Ni2B2C1,7.84
Er0.85Tb0.15Ni2B2C1,6.15
Er0.82Tb0.18Ni2B2C1,5.63
Er0.8Tb0.2Ni2B2C1,4.8
Ho1Ni2B2C1,8.53
Ho0.85Dy0.15Ni2B2C1,7.89
Ho0.8Dy0.2Ni2B2C1,6.61
Ho0.7Dy0.3Ni2B2C1,5.86
Ho0.65Dy0.35Ni2B2C1,5.91
Ho0.6Dy0.4Ni2B2C1,6.02
Ho0.5Dy0.5Ni2B2C1,5.91
Ho0.4Dy0.6Ni2B2C1,5.86
Ho0.2Dy0.8Ni2B2C1,6.2
Lu1Ni2B2C1,15.96
Lu0.772Dy0.228Ni2B2C1,11.77
Lu0.574Dy0.426Ni2B2C1,7.54
Lu0.418Dy0.582Ni2B2C1,4.35
Lu0.37Dy0.63Ni2B2C1,3.59
Lu0.32Dy0.68Ni2B2C1,2.0
Lu0.1Dy0.9Ni2B2C1,2.47
Lu0.05Dy0.95Ni2B2C1,6.35
Dy1Ni2B2C1,6.26
Tm1Ni2B2C1,10.8
Ce2Co1In8,0.4
Ce2Rh1In8,2.0
Ce1Rh1In5,1.62
Ce1Ir1In5,1.2
Ce1Cu2Si1.98Ge0.02,0.5
Ce1Cu2Si1.96Ge0.04,0.4
Ce1Cu2Si1.8Ge0.2,0.15
Y2Pd1Ge3,3.58
Y2Pd1Si2.25C0.75,2.27
Y2Pd1Si2C1,2.2
Y0.95Gd0.05Ni2B2C1,14.0
Y0.9Gd0.1Ni2B2C1,12.3
Y0.85Gd0.15Ni2B2C1,10.6
Y0.8Gd0.2Ni2B2C1,8.1
Y0.78Gd0.22Ni2B2C1,7.4
Y0.77Gd0.23Ni2B2C1,4.2
Y0.75Gd0.25Ni2B2C1,4.2
La6Ni2Sn1,2.25
Y0.95Gd0.05Ni2B2C1,13.0
Y0.9Gd0.1Ni2B2C1,11.2
Y0.85Gd0.15Ni2B2C1,9.3
Y0.78Gd0.22Ni2B2C1,6.64
Y0.75Gd0.25Ni2B2C1,4.84
Mg1B1.6C0.4,22.0
Dy1Ni2B2C1,6.4
Li1,17.0
Li1,20.0
Nb1C0.2N0.64,16.3
Nb1C0.2N0.7,17.2
Nb1C0.2N0.74,17.5
Nb1C0.3N0.57,16.4
Nb1C0.3N0.62,17.3
Nb1C0.3N0.64,17.8
Nb1C0.3N0.7,17.7
Nb1C0.5N0.36,15.6
Nb1C0.5N0.42,17.0
Nb1C0.5N0.47,17.4
Nb1C0.5N0.5,17.9
B2Mg1,37.0
Mg1B1.96F0.04,30.0
Mg1B1.92F0.08,21.0
Mg1B1.84F0.16,16.0
Nb1C0.2N0.8,17.6
B2Mg1,38.14
Mg0.996Cu0.004B2,38.11
Mg0.989Cu0.011B2,38.05
Mg0.982Cu0.018B2,37.8
Mg0.97Cu0.03B2,37.58
N0.72H2.16Na1K3C60,12.0
La1Os4Sb12,0.75
K3N1H3C60,28.0
U1Pd2Al3,1.6
Mg1C1Ni3,7.63
Li1,14.0
Ge5La1,7.0
Pr1Os4Sb12,1.82
H0.3Li1Nb1O2,5.5
H0.5Li1Nb1O2,5.5
B2Mg1,38.9
Mg1B1.8C0.2,37.0
Mg1B1.6C0.4,34.0
Pt1,0.02
B2Mg1,37.6
Mg0.9Al0.1B2,36.1
Mg0.8Al0.2B2,29.6
Mg0.7Al0.3B2,22.1
Mg0.4Al0.6B2,5.85
Y1Ni1.24Pd0.76B2C1,10.4
Y1Ni1.34Pd0.66B2C1,10.4
Y1Ni1.4Pd0.6B2C1,9.92
Y1Ni1.46Pd0.54B2C1,10.1
Y1Ni1.54Pd0.46B2C1,10.3
Y1Ni1.7Pd0.3B2C1,10.7
Y1Ni1.82Pd0.18B2C1,11.8
Pr1Ru4Sb12,1.3
La1Ru4Sb12,3.5
B0.67Mg0.33,6.1
Ce1Te1.82,2.7
B2Mg0.9,38.2
B2Mg0.8,38.0
B2Mg0.7,37.2
B2Mg0.6,36.9
B2Mg0.5,36.0
Mg0.95Zn0.05B2,38.3
Mg0.9Zn0.1B2,38.4
Mg0.8Zn0.2B2,38.4
Mg0.9Cu0.1B2,38.6
Mg0.8Cu0.2B2,38.6
Mg1B1.8C0.2,22.0
Mg1B1.95C0.05,38.0
Mg1B1.9C0.1,37.3
Mg1B1.8C0.2,36.8
Mg1B1.7C0.3,36.4
Mg1B1.6C0.4,35.8
Mg1B1.98C0.02,38.4
Mg1B1.96C0.04,38.4
Mg1B1.94C0.06,37.8
Mg1B1.92C0.08,38.3
Mg1B1.9C0.1,36.2
Mg1B1.85C0.15,36.3
Mg1B1.8C0.2,34.2
Mg1B1.75C0.25,30.0
Mg1B1.7C0.3,29.2
Mg1B1.6C0.4,24.9
Mg1B1.5C0.5,26.2
Li0.5Hf1N1Cl1,26.0
Rh1,0.000325
Rh1,0.00021
Pt1,0.00138
Pt1,0.00062
Am1,0.79
Au0.978In0.022,0.0005
Au0.915In0.085,0.031
Au0.9In0.1,0.077
W1,0.016
Ag0.9Ga0.1,0.0065
Au0.94In0.06,0.0111
Au0.93In0.07,0.0164
Au0.92In0.08,0.0256
Au0.91In0.09,0.0423
Au0.9In0.1,0.0641
W1,0.0154
Ho0.9Dy0.1Ni2B2C1,8.2
Mg0.98Ir0.02B2,33.2
Mg0.94Ir0.06B2,28.1
Mg0.88Ir0.12B2,18.0
Pb1Mo6S8,15.05
Pb1Mo6S8,12.3
Pb0.98Cu0.036Mo6S8,14.8
Pb0.9Cu0.18Mo6S8,13.65
Lu1Ni1B1C1,2.9
Lu1Ni2B2C1,16.7
Mg1C0.977Ni3,7.0
Mg1C1Ni3,8.2
Mg1C1Ni3,3.9
Ca1Al1Si1,7.9
Sr1Al1Si1,5.0
B3Re7,3.3
B1Re3,4.8
Co1Zr2,5.5
Zr2Co0.85Ni0.15,6.0
Zr2Co0.6Ni0.4,4.2
Ce1Ir1In5,0.38
Ce1Co1In5,2.23
Ce1Ir1In5,0.43
Mg1C1Ni3,6.6
Mg1C1Ni3,7.69
Mg1C1Ni2.95Co0.05,7.42
Mg1C1Ni2.9Co0.1,7.29
Mg1C1Ni2.8Co0.2,7.2
Mg1C1Ni2.6Co0.4,7.1
Mg1C1Ni2.9Fe0.1,8.58
Mg1C1Ni2.8Fe0.2,8.0
Mg1C1Ni2.7Fe0.3,6.88
Mg1C1.25Ni3,7.4
Mg1C1.5Ni3,7.9
V1,5.3
Cr0.1V0.9,3.3
Cr0.2V0.8,1.66
Mg0.9Al0.1B2,31.0
Mg0.8Al0.2B2,25.0
Mg0.7Al0.3B2,18.0
Mg0.6Al0.4B2,12.0
Mg1B1.96C0.04,35.5
Mg1B1.9C0.1,30.0
Mg1B1.85C0.15,24.0
Mg1B1.8C0.2,13.5
Mg1B1.75C0.25,2.5
Li1,13.8
Li1,5.95
Mg0.9Al0.05Li0.05B2,37.8
Mg0.8Al0.1Li0.1B2,31.0
Mg0.7Al0.15Li0.15B2,25.1
Mg0.6Al0.2Li0.2B2,16.1
Mg0.9Al0.1B2,37.8
Mg0.8Al0.2B2,29.0
Mg0.6Al0.4B2,7.0
Y1Ni2B2C1,15.7
Lu1Ni2B2C1,16.5
B1,11.0
S1,14.0
Se1,5.4
Te1,7.4
Be1,6.0
Hg1,4.16
Nd1Pt1.5Au0.6B2C1,3.2
La1Pt2.1B2.4C1.2,10.2
La0.9Nd0.1Pt2.1B2.4C1.2,10.3
La0.7Nd0.3Pt2.1B2.4C1.2,7.84
La0.5Nd0.5Pt2.1B2.4C1.2,6.36
La0.3Nd0.7Pt2.1B2.4C1.2,4.28
La0.1Nd0.9Pt2.1B2.4C1.2,3.45
Nd1Pt2.1B2.4C1.2,2.91
Mg1C1Ni3,6.84
Mg0.85Zn0.15C1Ni3,4.12
Mg0.854Au0.146B2,25.6
Mg0.764Au0.236B2,24.5
Ba8Si46,8.07
Mg1C1Ni3,7.2
La3Pd5Si1,1.4
Zr46.75Ti8.25Cu7.5Ni10Be27.5,1.84
Zr46.75Ti8.25Cu7.5Ni10Be27.5,3.76
La1Rh1Sb1,2.1
La1Rh3B2,2.32
La0.9989Ce0.0011Rh3B2,1.67
La0.9978Ce0.0022Rh3B2,1.07
La0.9973Ce0.0027Rh3B2,0.38
Ce1Os3B2,3.5
Ce1Ru3B2,1.1
Ce1Pt3Si1,0.75
Er1Ni1.96Fe0.04B2C0.99,7.3
Er0.8Tb0.2Ni2B2C1,3.7
Er0.8Lu0.2Ni2B2C1,10.8
Er1Ni1.9Co0.1B2C1,3.1
Pr1Os4Sb12,1.83
Pr1Os3.8Ru0.2Sb12,1.68
Pr1Os3.6Ru0.4Sb12,1.58
Pr1Os3.4Ru0.6Sb12,1.53
Pr1Os3.2Ru0.8Sb12,1.44
Pr1Os2.8Ru1.2Sb12,1.05
Pr1Os2.4Ru1.6Sb12,1.14
Pr1Os2Ru2Sb12,0.8
Pr1Os1.6Ru2.4Sb12,0.76
Pr1Os1.2Ru2.8Sb12,0.81
Pr1Os1Ru3Sb12,0.84
Pr1Os0.6Ru3.4Sb12,0.97
Pr1Os0.4Ru3.6Sb12,1.04
Pr1Os0.2Ru3.8Sb12,1.16
Bi1,8.7
P1,6.0
P1,4.0
P1,5.5
Mg0.95Zn0.025Al0.025B2,38.5
Mg0.9Zn0.05Al0.05B2,38.5
Mg0.8Zn0.1Al0.1B2,34.0
Mg0.7Zn0.15Al0.15B2,28.6
Mg0.6Zn0.2Al0.2B2,7.5
La1Ru3Si2,6.5
La1Ru3Si2,7.5
La0.92Tm0.08Ru3Si2,6.8
La0.84Tm0.16Ru3Si2,6.1
Ce1Ru3Si2,1.25
Ho1Ni2B2C1,8.04
B2Mg1,36.5
La1In2.25Sn0.75,0.75
La1In1.5Sn1.5,1.19
La1In0.75Sn2.25,0.67
La0.87Th0.13Sn3,6.26
La0.5Th0.5Sn3,4.67
La0.25Th0.75Sn3,3.94
La1Tl2.19Pb0.81,1.37
La1Tl1.5Pb1.5,1.75
La1Tl0.24Pb2.76,4.46
La0.76Th0.24Pb3,1.46
La0.23Th0.77Pb3,2.61
La0.06Th0.94Pb3,5.58
La1Tl2.25Sn0.75,1.05
La1Tl1.5Sn1.5,1.5
La1Tl0.75Sn2.25,1.19
Y1In2.25Pb0.75,0.6
Y1In1.5Pb1.5,1.0
Y1In0.75Pb2.25,1.94
Y1In2.25Sn0.75,0.69
Y1In1.71Sn1.29,1.49
Th1In2.25Sn0.75,0.21
Th1In1.5Sn1.5,1.03
Th1In0.75Sn2.25,3.36
Ca1Tl2.4Pb0.6,3.18
Ca1Tl1.8Pb1.2,2.8
Ca1Tl0.75Pb2.25,3.68
La1Pb2.25Sn0.75,1.11
La1Pb1.5Sn1.5,1.18
La1Pb0.75Sn2.25,2.54
Ba8Si46,8.1
Ba8Si43Ge3,7.1
Ba8Si40Ge6,6.0
Ba8Si37Ge9,5.0
Ba8Si34Ge12,4.0
Ba8Si31Ge15,3.91
Ba8Si28Ge18,3.12
Ba8Si25Ge21,2.8
Ba8Si23Ge23,2.28
Ba7.76Si46,8.0
Li0.5M0.3Hf1N1Cl1,26.0
Na0.18Hf1N1Cl1,22.0
Na0.29Hf1N1Cl1,19.0
Na0.8Hf1N1Cl1,19.0
Li0.48M0.3Hf1N1Cl1,26.0
Li0.16Zr1N1Cl1,15.0
Li0.16M1Zr1N1Cl1,14.0
Li0.14Zr1N1Cl1,15.0
Li0.28Zr1N1Cl1,15.2
Li0.55Zr1N1Cl1,15.0
Li0.65Zr1N1Cl1,15.0
Li0.95Zr1N1Cl1,13.4
Li1.3Zr1N1Cl1,11.0
Li1.4Zr1N1Cl1,10.0
Na0.5Zr1N1Cl1,15.0
Na0.59Zr1N1Cl1,15.0
Na0.66Zr1N1Cl1,14.5
Na0.75Zr1N1Cl1,14.3
Na1.38Zr1N1Cl1,11.0
K0.22Zr1N1Cl1,15.2
K0.4Zr1N1Cl1,15.2
K0.46Zr1N1Cl1,15.0
K0.6Zr1N1Cl1,14.4
K0.77Zr1N1Cl1,13.5
C3Y2,18.0
Ho1Ni2B2C1,8.7
Mg0.95Li0.025Al0.025B2,38.2
Mg0.9Li0.05Al0.05B2,37.8
Mg0.8Li0.1Al0.1B2,31.0
Mg0.7Li0.15Al0.15B2,25.1
Lu0.88Gd0.12Ni2B2C1,7.3
Lu0.5Y0.5Ni2B2C1,14.9
Lu0.25Y0.75Ni2B2C1,14.2
Cs1,1.5
Y1,2.7
Cs1I1,2.0
Li0.17Zr1N1Cl1,14.2
Li0.4Zr1N1Cl1,12.5
Li0.6Zr1N1Cl1,11.7
Li0.15M0.08Zr1N1Cl1,14.4
Li0.18M0.15Zr1N1Cl1,14.6
Li0.24M0.14Hf1N1Cl1,25.5
Li0.5M0.3Hf1N1Cl1,25.5
Y1Fe4P12,7.0
Y1Os4P12,3.0
As1,2.7
Lu1,0.6
Pr1Ru4Sb12,1.25
Mg1B1.9906C0.0094,38.5
Mg1B1.958C0.042,37.9
Mg1B1.924C0.076,36.2
Sc0.9Y0.1Ni2B2C1,15.1
Sc0.8Y0.2Ni2B2C1,14.8
Sc0.7Y0.3Ni2B2C1,14.5
Y0.16Lu0.84Ni2B2C1,15.2
Y0.3Lu0.7Ni2B2C1,15.0
Y0.5Lu0.5Ni2B2C1,14.5
Y0.75Lu0.25Ni2B2C1,14.9
Y0.84Lu0.16Ni2B2C1,14.8
Y0.92Lu0.08Ni2B2C1,15.2
Ho0.15Lu0.85Ni2B2C1,15.1
Ho0.3Lu0.7Ni2B2C1,13.3
Ho0.45Lu0.55Ni2B2C1,10.0
Ho0.6Lu0.4Ni2B2C1,9.82
Ho0.7Lu0.3Ni2B2C1,8.72
Ho0.75Lu0.25Ni2B2C1,8.81
Ho0.8Lu0.2Ni2B2C1,8.77
Ho0.85Lu0.15Ni2B2C1,8.72
Ho0.9Lu0.1Ni2B2C1,8.77
Ho0.95Lu0.05Ni2B2C1,8.77
Ho1Ni2B2C1,8.48
Pb1Mo6S8,12.9
Pb1Mo6S8,11.5
Ca1Al1Si1,7.13
Ca1Al0.9Ga0.1Si1,6.54
Ca1Al0.8Ga0.2Si1,5.6
Ca1Al0.7Ga0.3Si1,4.78
Ca1Al0.6Ga0.4Si1,4.51
Ca1Al0.5Ga0.5Si1,3.73
Ca1Al0.4Ga0.6Si1,3.45
Ca1Al0.3Ga0.7Si1,3.0
Ca1Al0.2Ga0.8Si1,3.24
Ca1Al0.1Ga0.9Si1,3.34
Ca1Ga1Si1,4.05
Ce1Pt3Si1,0.63
B12Zr1,6.06
Y1Rh4Si2B1,9.0
La1Rh4Si2B1,8.0
Nb1Se2,7.007
S2Ta1,3.96
C8K1Hg1,1.88
C8Rb1Hg1,1.41
Nb3S4,3.65
Ce1Rh0.65Ir0.35In5,0.22
Ce1Rh0.55Ir0.45In5,0.94
Ce1Rh0.5Ir0.5In5,0.9
Ce1Rh0.45Ir0.55In5,0.82
Cu1Rh2S4,4.75
Cu1.2Rh1.8S4,5.08
Cu1.5Rh1.5S4,4.6
Cu1Co2S4,4.0
Cu1.2Co1.8S4,1.7
Cu1.5Co1.5S4,2.3
Cu1.75Co1.25S4,2.2
Ce1Pt3Si1,0.51
B2.32Nb1,9.8
B2.26Nb1,9.2
Y1Rh1Al1,0.9
La1Rh1Al1,2.4
Y1Rh1Sb1,2.1
Ca1B1.05Pd3,0.8
Ca1B1.25Pd3,1.0
Nb1B0.2Rh3,6.4
B2Mg1,40.36
B2Mg1,39.36
B6Y1,6.8
Y0.9La0.1B6,6.8
Y0.8La0.2B6,5.8
Y0.65La0.35B6,4.0
Be0.99Re0.01,9.25
Be0.98Re0.02,9.45
Be22Re1,9.55
Be22Re0.99Ru0.01,9.2
Ga0.255V0.745,13.9
Ga0.247V0.753,13.8
Ga0.233V0.767,13.3
V0.745Ga0.228Al0.027,13.05
V0.737Ga0.213Al0.05,12.6
V0.741Ga0.196Al0.063,12.2
V0.741Ga0.152Al0.107,11.4
V0.747Ga0.131Al0.122,11.7
V0.767Ga0.086Al0.147,12.1
V0.784Ga0.172Al0.044,9.4
V0.767Ga0.18Al0.053,11.5
V0.725Ga0.203Al0.072,12.3
V0.683Ga0.22Al0.097,9.4
V0.783Ga0.138Al0.079,10.2
V0.709Ga0.151Al0.14,9.0
V0.767Ga0.214Al0.022,12.1
V0.743Ga0.181Al0.076,12.0
V0.746Ga0.169Al0.085,11.8
Al0.25V0.75,16.9
V0.75Si0.225Al0.025,13.5
V0.75Si0.22Al0.03,13.3
V0.75Si0.2125Al0.0375,12.6
V0.77Si0.21Al0.02,11.7
V0.75Si0.2Al0.05,11.8
V0.75Si0.175Al0.075,11.1
V0.75Si0.125Al0.125,10.4
V0.75Si0.025Al0.225,9.8
V0.72Si0.17Al0.11,10.3
V0.65Si0.1Al0.25,9.9
V0.73Si0.25Al0.02,14.0
V0.73Si0.23Al0.04,10.4
V0.7Si0.2Al0.1,10.6
V0.63Si0.14Al0.23,9.7
Ge0.27V0.73,6.6
Ge0.25V0.75,6.5
Ge0.23V0.77,6.4
Ge0.21V0.79,6.4
V0.75Ge0.2375Al0.0125,7.6
V0.75Ge0.225Al0.025,8.6
V0.75Ge0.2125Al0.0375,8.9
V0.75Ge0.2Al0.05,10.3
V0.75Ge0.1875Al0.0625,11.4
V0.75Ge0.175Al0.075,10.8
V0.75Ge0.15Al0.1,11.7
V0.75Ge0.13Al0.12,11.3
V0.75Ge0.025Al0.225,11.2
V0.65Ge0.1Al0.25,7.0
V0.55Ge0.1Al0.35,5.4
V0.65Ge0.15Al0.2,5.5
V0.65Ge0.25Al0.1,5.5
V0.745Sb0.208Al0.025,2.0
V0.751Sb0.208Al0.041,3.4
V0.746Sb0.179Al0.075,4.3
V0.749Sb0.157Al0.094,5.1
V0.741Sb0.113Al0.146,6.1
V0.736Sb0.037Al0.227,6.4
Al2La1,3.229
La0.9941Tb0.0059Al2,1.996
La0.9911Tb0.0089Al2,1.425
Al13Os4,5.3
Al13Os3.2Ru0.8,4.0
Cu1Co1.99Rh0.01S4,2.61
Cu1Co1.98Rh0.02S4,2.82
Cu1Co1.99Ir0.01S4,3.04
Cu1Co1.98Ir0.02S4,2.79
Cu1Co1.95Ir0.05S4,2.13
Cu1Co2S4,3.8
Cu1Co1.99Cr0.01S4,3.62
Cu1Co1.98Cr0.02S4,3.4
Cu1Co1.95Cr0.05S4,3.4
Cu1Co1.9Cr0.1S4,3.0
Cu1Co1.8Cr0.2S4,2.7
Ce1Ru2,5.4
Ce1Ru1.99Co0.01,4.74
Ce1Ru1.97Co0.03,3.5
Ce1Ru1.95Co0.05,2.4
Ce1Ru1.93Co0.07,1.93
Ce1Ru0.3Co1.7,0.27
Ce1Ru0.2Co1.8,0.35
Ce1Ru0.1Co1.9,0.47
Ce0.025Th0.975,0.58
Th0.999U0.001,0.654
Al0.999Mn0.001,0.596
Al3Nb3,18.4
Nb3Al0.9Ge0.1,19.5
Nb3Al0.8Ge0.2,19.8
Nb3Al0.7Ge0.3,19.9
Nb3Al0.6Ge0.4,19.7
Nb3Al0.5Ge0.5,17.4
Nb3Al0.9Ga0.1,18.5
Nb3Al0.8Ga0.2,18.54
Nb3Al0.67Ga0.33,18.7
Nb3Al0.5Ga0.5,18.5
Nb3Al0.9In0.1,18.3
Nb3Al0.8In0.2,18.1
Nb3Al0.67In0.33,16.0
Nb3Al0.9Zn0.1,18.1
Nb3Al0.8Zn0.2,17.7
Nb3Al0.67Zn0.33,17.3
Nb3Al0.5Zn0.5,16.0
Nb3Sn0.9Ga0.1,18.3
Nb3Sn0.8Ga0.2,17.0
Nb3Sn0.65Ga0.35,16.5
Nb3Sn0.5Ga0.5,16.4
Nb3Sn0.95Ge0.05,18.1
Nb3Sn0.9Ge0.1,18.0
Nb3Sn0.8Ge0.2,17.7
Nb3Sn0.65Ge0.35,16.1
Nb3Sn0.9In0.1,18.1
Nb3Sn0.8In0.2,17.8
Nb3Sn0.9Al0.1,17.8
Nb3Sn0.8Al0.2,16.8
Nb3Sn0.7Al0.3,15.8
Nb3Sn0.6Al0.4,15.7
Nb3Sn0.5Al0.5,16.1
Ga1Nb3,16.1
Nb3Ga0.85Al0.15,17.1
Nb3Ga0.67Al0.33,18.1
Nb3Ga0.5Al0.5,18.5
Nb3Ga0.9Zn0.1,16.1
Nb3Ga0.8Zn0.2,16.2
Nb3Ga0.65Zn0.35,16.3
Nb3Ga0.5Zn0.5,16.4
Nb3Ga0.95Ge0.05,15.3
Pb0.9904Sb0.0096,7.29
Bi0.0105Pb0.9895,7.214
Pb0.9769Sn0.0231,7.213
Pb0.95Tl0.025Bi0.025,7.214
Hg0.0307Pb0.9693,7.134
In0.0293Pb0.9707,7.109
Cd0.0263Pb0.9737,7.124
Pb0.9848Tl0.0152,7.135
Ce0.86Tb0.14Ru2,4.51
Ce0.8Tb0.2Ru2,2.52
Ce0.84Y0.16Ru2,4.92
Ce0.84Y0.1Gd0.06Ru2,4.55
Ce0.84Y0.06Gd0.1Ru2,3.32
In1La3,9.45
La2.98Ce0.02In1,8.2
La2.96Ce0.04In1,7.01
La2.94Ce0.06In1,5.58
Ga4Mo1,7.98
Mo0.98Nb0.02Ga4,8.0
Mo0.96Nb0.04Ga4,8.0
Mo0.96Ru0.04Ga4,7.63
Mo0.96Co0.04Ga4,7.07
Mo0.97Fe0.03Ga4,5.13
Mo0.94Fe0.06Ga4,2.6
Mo0.99Mn0.01Ga4,3.94
Mo1,0.92
Co0.01Mo99.99,0.71
Co0.015Mo99.985,0.59
Co0.032Mo99.968,0.31
Co0.038Mo99.962,0.22
Fe0.008Mo99.992,0.645
Fe0.011Mo99.989,0.51
Pd1Tl1Pb1,1.78
Rh0.5Pd0.5Pb2,1.7
Pd0.5Au0.5Pb2,3.02
Pd0.5Ag0.5Th2,1.2
Ag0.5Al0.5Th2,0.78
Al0.5Ge0.5Th2,0.21
Fe0.5Co0.5Zr2,1.26
Co0.5Ni0.5Zr2,3.21
Ni2.5Cu1.5Zr8,1.09
Co0.5Ni0.5Ta2,0.91
Co1Ta1.75Zr0.25,1.0
Fe0.5Ni0.5Zr2,2.45
B1Mo1.5Ta0.5,1.82
B1Mo1Re1,5.09
B1Ta0.5W1.5,1.94
B1W1.26Re0.74,5.1
Rh0.106Ti0.894,4.28
Ir0.03Zr0.97,3.19
Co0.03Zr0.97,2.61
Nb0.95W0.05,7.25
Nb0.85W0.15,5.32
Nb0.4Zr0.6,8.86
Nb0.5Zr0.5,9.46
Nb0.6Zr0.4,10.3
Nb0.7Zr0.3,10.8
Nb0.8Zr0.2,10.9
Nb0.9Zr0.1,10.7
Mo0.02Nb0.98,8.24
Mo0.05Nb0.95,7.63
Mo0.1Nb0.9,6.72
Mo0.2Nb0.8,4.57
Mo0.3Nb0.7,2.67
Mo0.33Re0.67,5.89
Ti0.91V0.09,6.3
Ti0.2V0.8,7.46
V1,5.15
Cr0.06V0.94,2.93
Cr0.1V0.9,1.88
Nb0.35Ti0.65,7.69
Hf0.5Ta0.5,6.28
Hf0.32Ta0.68,6.68
Hf0.16Ta0.84,5.98
Hf0.08Ta0.92,5.38
Ta1,4.42
Ta0.96W0.04,3.5
Ta0.92W0.08,2.85
Ta0.85W0.15,1.95
Re0.4W0.6,5.08
Hf0.5Nb0.5,8.31
Hf0.2Nb0.8,9.48
Hf0.1Nb0.9,9.6
Hf0.05Nb0.95,9.52
Cr0.05Nb0.95,6.66
Cr0.1Nb0.9,4.66
Ti0.65Zr0.35,1.37
Ti0.5Zr0.5,1.57
Ti0.3Zr0.7,1.36
Ti0.2Zr0.8,1.01
Nb0.4V0.6,4.11
Nb0.55V0.45,4.11
Nb0.6V0.4,4.17
Nb0.85V0.15,6.0
Nb0.8Ta0.2,7.82
Nb0.63Ta0.37,6.84
Nb0.4Ta0.6,5.54
Cr0.3Ru0.7,0.38
Cr1Ru2,2.0
Cr1Ru3,3.3
Cr0.125Ru0.875,1.2
Cr0.7Rh0.3,1.1
Cr0.28Ir0.72,0.83
Cr0.09Ir0.91,0.78
Mo0.3Nb0.7,2.48
Nb0.8W0.2,4.68
Cr0.1Nb0.9,5.0
Cr0.1V0.9,2.06
Hf0.2Ta0.8,6.26
Ta0.8W0.2,0.88
Cr0.2V0.8,1.9
Cr0.25V0.75,1.36
Cr0.39V0.61,0.37
Cr0.48V0.52,0.1
Cr0.06Mo0.94,0.71
Cr0.15Mo0.85,0.5
Cr0.25Mo0.75,0.155
Cr0.4Mo0.6,0.095
Cr0.476Mo0.524,0.045
Cr0.57Mo0.43,0.03
Fe0.018Ru0.982,0.165
Fe0.031Ru0.969,0.054
Fe0.043Ru0.957,0.018
Mn1U6,2.4
U6Mn0.5Fe0.5,2.86
Fe1U6,3.88
U6Fe0.5Co0.5,3.05
Co1U6,2.41
U6Co0.5Ni0.5,1.37
Ni1U6,0.41
Cu0.005V0.995,4.92
Cu0.01V0.99,4.74
Cu0.025V0.975,4.45
Cu0.05V0.95,3.85
Si0.005V0.995,4.75
Si0.01V0.99,4.66
Si0.025V0.975,4.06
Si0.05V0.95,2.95
V1,5.2
Al0.005V0.995,4.82
Al0.01V0.99,4.49
Al0.02V0.98,4.05
Al0.04V0.96,3.31
Al0.06V0.94,2.83
Al0.08V0.92,2.36
Al0.1V0.9,1.96
Al0.12V0.88,1.73
Sn0.005V0.995,4.57
Sn0.01V0.99,4.21
Sn0.025V0.975,3.16
Cr0.56Re0.44,5.1
Cr0.8Re0.2,1.31
Cr0.33Re0.67,2.29
Cu1Rh2Se4,3.49
Cu1V2S4,4.45
Cu0.98Co0.02Rh2S4,1.0
Cu1Rh1.992Cr0.008S4,0.9
Ir0.49Mo0.51,1.81
Ir0.66Mo0.34,0.25
Ir0.71Mo0.29,0.12
Ir0.75Mo0.25,0.13
Mo0.5Rh0.5,1.91
Mo0.4Rh0.6,0.91
Mo0.33Rh0.67,0.1
Mo0.28Rh0.72,0.03
Co0.007Ru0.993,0.4
Co0.015Ru0.985,0.32
Co0.022Ru0.978,0.27
Co0.027Ru0.973,0.25
Co0.034Ru0.964,0.2
Co0.07Ru0.93,0.09
Ni0.007Ru0.993,0.44
Ni0.031Ru0.969,0.36
Ni0.08Ru0.92,0.2
Rh0.04Ru0.96,0.38
Rh0.105Ru0.895,0.27
Rh0.2Ru0.8,0.18
Rh0.32Ru0.68,0.11
Pd0.015Ru0.985,0.4
Pt0.014Ru0.986,0.43
Pt0.06Ru0.94,0.29
Pt0.113Ru0.887,0.21
Ir0.036Ru0.964,0.41
Ir0.14Ru0.86,0.28
Ir0.22Ru0.78,0.21
Ir0.32Ru0.68,0.18
Ir0.43Ru0.57,0.18
Cu1Rh1.9Sn0.1Se4,2.86
Cu1Rh1.78Sn0.22Se4,1.92
Cu1Rh1.7Sn0.3Se4,1.26
Cu1Rh1.6Sn0.4Se4,0.57
Cu1Rh1.5Sn0.5Se4,0.14
Rh1Se2,4.35
Rh0.88Ru0.12Se2,2.28
Rh0.8Ru0.2Se2,1.33
Rh0.7Ru0.3Se2,0.62
Rh0.6Ru0.4Se2,0.18
La1,6.24
Ce0.005La0.995,5.27
Ce0.03La0.97,1.21
La0.99Nd0.01,5.18
La0.96Nd0.04,1.72
La0.9916Sm0.0084,4.22
La0.9795Sm0.0205,1.27
Ho0.0105La0.9895,5.2
Ho0.0422La0.9578,1.2
Eu0.0028La0.9972,5.51
Eu0.0153La0.9847,1.58
La0.9974Tb0.0026,5.28
La0.987Tb0.013,1.38
Er0.005La0.995,5.94
Er0.08La0.92,1.44
K0.1W1O2.9F0.1,2.1
Cs0.1W1O2.9F0.1,4.4
Rb0.1W1O2.9F0.1,3.6
K0.1Li0.02W1O2.88F0.12,1.1
Rb0.1Li0.02W1O2.88F0.12,3.4
Rb0.1Li0.05W1O2.85F0.15,3.1
Rb0.1Li0.1W1O2.8F0.2,2.0
Cs0.1Li0.02W1O2.88F0.12,4.0
Cs0.1Li0.05W1O2.85F0.15,3.3
Cs0.1Li0.1W1O2.8F0.2,2.1
Mo0.0708Ti0.9292,2.8
Mo0.0905Ti0.9095,3.05
Mo0.1215Ti0.8785,3.5
Mo0.1633Ti0.8367,4.0
H3.63Th1,8.35
D3.63Th1,8.05
In1La3,9.2
La2.9952Gd0.0048In1,8.5
La2.9889Gd0.0111In1,7.92
La2.9745Gd0.0255In1,6.92
La2.9706Gd0.0294In1,6.0
La2.9628Gd0.0372In1,5.04
La2.9553Gd0.0447In1,4.3
La2.952Gd0.048In1,3.48
La2.9451Gd0.0549In1,2.71
La1Sn3,6.4
La0.987Gd0.013Sn3,5.94
La0.936Gd0.064Sn3,3.76
Ce0.01La0.99,3.63
La0.99Pr0.01,5.23
La0.99Nd0.01,4.65
La0.99Sm0.01,4.5
Eu0.01La0.99,3.79
Gd0.01La0.99,0.62
La0.99Tb0.01,2.53
Dy0.01La0.99,3.74
Ho0.01La0.99,5.18
Er0.01La0.99,5.31