composition,critical_temperature_tc
La1Ru2Si2,3.5
Lu1Ru2Si2,2.4
Y1Rh4B4,11.34
Nd1Rh4B4,5.36
Sm1Rh4B4,2.51
Sm1Fe1As1F0.1O0.9,4.47
Sm1Fe1As1F0.12O0.88,17.3
Sm1Fe1As1F0.14O0.86,26.8
Sm1Fe1As1F0.15O0.85,42.3
Sm1Fe1As1F0.2O0.8,52.4
Sm1Fe1As1F0.1O0.9,54.6
Gd1Fe1As1O0.85,53.5
Gd1Fe1As1F0.2O0.8,48.35
Nd1Fe1As1F0.11O0.89,50.1
Nd1Fe1As1F0.08O0.92,35.0
Nd1Fe1As1F0.12O0.88,48.0
Nd1Fe1As1F0.16O0.84,46.0
Sm1Fe1As1O0.85,55.0
Nd1Fe1As1O0.85,51.0
Pr1Fe1As1O0.85,48.2
Ce1Fe1As1O0.85,42.6
La1Fe1As1O0.85,28.3
Gd0.8Th0.2Fe1As1O1,56.5
Ba0.6K0.4Fe2As2,38.0
Ba0.5K0.5Fe2As2O1,36.0
Sr0.6K0.4Fe2As2,38.0
Sr0.6K0.4Fe2As2,20.0
Sm1Fe1As1F0.15O0.85,40.0
Ag7H1F2O8,1.38
Sm1Fe1As1F0.15O0.85,41.7
Nd1Fe1As1F0.18O0.82,50.0
La1Fe1As1F0.1O0.9,26.0
La0.9Sr0.1Ni1As1O1,3.7
La0.8Sr0.2Ni1As1O1,3.5
La1Ni1As1O1,2.75
Ce1Fe1As1F0.16O0.84,41.0
Ce1Fe1As1F0.12O0.88,40.0
Ce1Fe1As1F0.11O0.89,47.0
La1Fe1As1F0.11O0.89,23.0
La1Fe1As1F0.6O0.4,40.0
Nd1Fe1As1F0.18O0.82,52.0
Gd1Fe1As1F0.17O0.83,22.0
La1Fe1As1F0.06O0.94,18.0
La1Ni1As1O1,2.4
La1Fe1As1F0.05O0.95,26.3
Sr1Fe1.8Co0.2As2,19.2
Sr1Fe1.75Co0.25As2,18.1
Sr1Fe1.6Co0.4As2,12.9
Eu1Fe2As2,29.5
Tm1Rh4B4,9.86
Lu1Rh4B4,11.76
Lu0.75Th0.25Rh4B4,11.93
Sc0.75Th0.25Rh4B4,8.74
Th1Rh4B4,4.34
Nb1Ru1Si1,2.65
Ta1Ru1Si1,3.15
Nb1Re1Si1,5.1
Ta1Re1Si1,4.4
C6I4O2,0.8
I4Sn1,1.96
Bi1,8.3
Bi1,3.93
Bi1,7.25
Bi1,6.55
Y1Ba2Cu3O6.951,91.19
Y0.8Pr0.2Ba2Cu3O7-z,74.07
Y0.7Pr0.3Ba2Cu3O7-z,57.97
Y0.6Pr0.4Ba2Cu3O6.929,44.8
Y0.55Pr0.45Ba2Cu3O7-z,36.5
Y0.5Pr0.5Ba2Cu3O7-z,23.12
Y0.45Pr0.55Ba2Cu3O6.953,14.4
Sm1Fe1As1F0.13O0.87,24.7
Sm1Fe1As1F0.3O0.7,43.5
La1Fe1As1F0.11O0.89,27.9
La1Fe1As1F0.05O0.95,23.3
La1Fe1As1F0.11O0.89,26.0
Bi2Pd3Se2,0.96
Ba1Pt4Ge12,5.03
Ba1Pt3.75Au0.25Ge12,5.05
Ba1Pt3.5Au0.5Ge12,5.19
Ba1Pt3.25Au0.75Ge12,6.25
Ba1Pt3Au1Ge12,7.0
La1Fe1As1F0.1O0.9,23.7
Ba0.55K0.45Fe2As2,29.5
Ca1Fe2As2,12.0
La1Fe1As1F0.05O0.95,20.5
La1Fe1As1F0.11O0.89,21.1
C1Si1,1.45
Si1,0.34
Li1Fe1As1,18.0
Pr1Os4Sb12,1.87
La1Fe1As1F0.11O0.89,25.0
Nd1Fe1As1F0.06O0.94,47.5
Sm1Fe1As1O0.85,52.0
V1,5.16
Ta1,4.43
Bi0.1Sn0.9,6.5
Bi0.8Sn0.2,7.3
Ta1,4.31
Tl1,2.376
Cd1,0.52
Zn1,0.867
Ti0.64Ta0.075Nb0.285,8.73
Ba0.6K0.4Fe2As2,37.0
B2.2Nb1,9.01
B2.4Nb1,9.96
B2.6Nb1,10.9
B2.8Nb1,9.96
B3Nb1,9.96
La1Fe1As1F0.075O0.925,22.0
K1Fe2As2,3.8
K0.4Sr0.6Fe2As2,36.0
Cs1Fe2As2,2.6
Cs0.4Sr0.6Fe2As2,36.6
Ba1Fe1.8Co0.2As2,22.0
Cu0.03Ta1S2,3.79
Cu0.04Ta1S2,4.2
Cu0.06Ta1S2,4.16
Cu0.08Ta1S2,3.45
Cu0.1Ta1S2,2.71
Cu0.12Ta1S2,1.82
Y1Ba2Cu4O7.986,79.2
La1Fe0.95Co0.05As1O1,11.0
La1Fe0.89Co0.11As1O1,14.0
La1Fe0.85Co0.15As1O1,6.0
Cu0.01Ta1S2,3.05
Eu0.5K0.5Fe2As2,32.0
Sc1,19.6
Lu1,12.2
La0.85Sr0.15Fe1As1O1-z,23.0
Sm1Fe1As1F0.18O0.82,45.0
H1Pd1,3.5
Hg1Ba2Ca4Cu5Oz,72.0
Hg1Ba2Ca4Cu5Oz,108.0
Tl1Ba2Ca4Cu5Oz,100.0
B0.015C0.985,12.0
Ge2Mo1,6.11
La1Fe1As1F0.11O0.89,28.0
La1Fe0.9875Co0.0125As1F0.11O0.89,25.0
La1Fe0.98Co0.02As1F0.11O0.89,10.3
La1Fe1P1O1,3.3
La1Fe1P1F0.06O0.94,5.8
Np1Pd5Al2,4.9
Y3Pt4Ge6,2.6
Y1Ba2Cu2.82Zn0.18O7-z,32.0
La1.85Ca0.15Cu1O4,20.6
La1.925Ba0.075Cu1O4,24.0
La1.91Ba0.09Cu1O4,29.3
La1.9Ba0.1Cu1O4,29.1
La1.89Ba0.11Cu1O4,29.1
La1.875Ba0.125Cu1O4,29.0
La1.85Ba0.15Cu1O4,29.1
La1.825Ba0.175Cu1O4,24.6
La1.8Ba0.2Cu1O4,23.4
La1.88Sr0.12Cu1O4,29.4
La1.88Sr0.12Cu1O4,29.1
La1.87Sr0.13Cu1O4,34.4
La1.86Sr0.14Cu1O4,36.9
Nd1.85Ce0.15Cu1O4,24.5
La1.875Ca0.125Cu1O4,21.7
La1.84Sr0.05Ca0.11Cu1O4,33.2
La1.925Ca0.075Cu1O4,9.2
La1.912Ca0.0875Cu1O4,16.0
La1.9Ca0.1Cu1O4,19.5
La1.887Ca0.1125Cu1O4,20.1
La1.85Sr0.15Cu0.995Ni0.005O4,33.0
La1.85Sr0.15Cu0.99Ni0.01O4,29.0
La1.85Sr0.15Cu0.985Ni0.015O4,25.5
La1.85Sr0.15Cu0.98Ni0.02O4,21.5
La1.85Sr0.15Cu0.975Ni0.025O4,16.5
La1.85Sr0.15Cu0.97Ni0.03O4,13.5
La1.834Sr0.166Cu1O4,35.0
La1.834Sr0.166Cu0.99Zn0.01O4,26.5
La1.9Ca0.1Cu1O4,20.0
La1.92Ca0.08Cu1O4,14.0
La1.85Sr0.15Cu1O4,37.43
La1.85Sr0.15Cu0.995Ni0.005O4,34.41
La1.85Sr0.15Cu0.99Ni0.01O4,30.0
La1.85Sr0.15Cu0.985Ni0.015O4,25.9
La1.85Sr0.15Cu98Ni0.02O4,21.96
La1.85Sr0.15Cu0.975Ni0.025O4,16.6
La1.85Sr0.15Cu0.97Ni0.03O4,12.7
La1.85Sr0.15Cu0.996Zn0.004O4,32.7
La1.85Sr0.15Cu0.992Zn0.008O4,28.5
La1.85Sr0.15Cu0.988Zn0.012O4,23.7
La1.85Sr0.15Cu0.984Zn0.016O4,19.0
La1.85Sr0.15Cu0.978Zn0.022O4,13.6
La1.85Sr0.15Cu0.997Fe0.003O4,33.6
La1.85Sr0.15Cu0.995Fe0.005O4,30.82
La1.85Sr0.15Cu0.993Fe0.007O4,26.25
La1.85Sr0.15Cu0.992Fe0.008O4,24.73
La1.85Sr0.15Cu0.991Fe0.009O4,19.85
La1.85Sr0.15Cu0.99Fe0.01O4,17.7
La1.85Ca0.15Cu1O4,22.1
La1.85Sr0.15Cu0.9975Co0.0025O4,34.8
La1.85Sr0.15Cu0.995Co0.005O4,33.0
La1.85Sr0.15Cu0.9925Co0.0075O4,30.6
La1.85Sr0.15Cu0.99Co0.01O4,25.2
La1.85Sr0.15Cu0.9875Co0.0125O4,22.9
La1.85Sr0.15Cu0.985Co0.015O4,13.5
La1.85Sr0.15Cu0.9825Co0.0175O4,13.2
Nd1Fe1As1O0.6,53.0
Nd1Fe1As1O0.2,54.0
La1Fe1As1O0.6,27.0
Pr1Fe1As1O0.6,44.0
Ce1Fe1As1F0.12O0.88,47.0
Tl0.5Ba2Ca2Cu3O10-z,112.0
Tl0.5Ba2Ca2Cu3Ge0.5O10-z,103.0
Tl0.5Ba2Ca2Cu2.75Ge0.75O10-z,108.0
Tl0.5Ba2Ca2Cu2.5Ge1O10-z,104.0
Bi2Sr2Ca1Cu2O8,75.0
Bi2Sr2Ca2Cu3O10,110.0
Ba0.625K0.375Bi1O3,29.4
Ba1Pb0.75Bi0.25O3,11.0
Ba0.7K0.6Bi1O3,29.35
Y1Ba2Cu3O7-z,89.9
Y1Ba2Cu3O7-z,89.7
Y1Ba2Cu3O7-z,91.95
C60Rb3,29.55
Pb0.5B0.5Sr1La1Cu1Oz,30.0
Tl0.25Li0.25Ba2Ca2Cu2Ni1.5O10-z,110.0
Tl0.25Li0.25Ba2Ca1.5Mg0.5Cu2Ni1.5O10-z,107.0
Tl0.25Li0.25Ba2Ca1Mg1Cu2Ni1.5O10-z,105.0
Tl0.25Li0.25Ba2Ca0.5Mg1.5Cu2Ni1.5O10-z,103.0
Tl0.5Ba2Ca2Cu2Ni1.5O10-z,97.0
Tl0.5Ba2Ca1.5Mg0.5Cu2Ni1.5O10-z,99.7
Tl0.5Ba2Ca1Mg1Cu2Ni1.5O10-z,99.8
Tl0.5Ba2Ca0.5Mg1.5Cu2Ni1.5O10-z,100.0
Tl0.5Ba2Ca1.5Be0.5Cu2Ni1.5O10-z,100.0
Tl0.5Ba2Ca1Be1Cu2Ni1.5O10-z,104.0
Tl0.5Ba2Ca0.5Be1.5Cu2Ni1.5O10-z,107.0
Tl0.5Ba2Ca1.5Mg0.5Cu2Ni1.5O10-z,101.0
Tl0.5Ba2Ca1Mg1Cu2Ni1.5O10-z,102.5
Tl0.5Ba2Ca0.5Mg1.5Cu2Ni1.5O10-z,103.5
La1.85Sr0.15Cu1O4,34.5
La1Fe1As1F0.1O0.9,22.8
Ba0.55K0.45Fe2As2,29.4
Ba1Fe2As2,29.0
Sr1Fe2As2,27.0
Tb0.9Th0.1Fe1As1O1,45.0
Tb0.8Th0.2Fe1As1O1,52.0
B12Lu1,0.42
B12Lu1,0.44
B12Lu1,0.4
B6Y1,6.0
Y0.6La0.4B6,4.4
Y0.9Fe0.1B6,3.3
Y0.95Ce0.05B6,1.6
Y0.5La0.5B6,1.6
Ga1,1.078
Cd1,0.518
In1,3.405
Al1,1.163
Zn1,0.825
B12Zr1,5.85
Be1,0.026
Pu1Co1Ga5,18.0
Sr1Fe1.7Co0.3As2,13.2
La1Fe1As1F0.1O0.9,28.5
Pr0.88La1Ce0.12Cu1O3.908,27.0
Pr0.88La1Ce0.12Cu1O3.934,24.0
Pr0.88La1Ce0.12Cu1O3.947,22.0
C6Yb1,6.47
Mo1Sr2Ho1Cu2O8,27.0
K0.2Sr0.8Fe2As2,13.0
K0.4Sr0.6Fe2As2,37.0
K0.7Sr0.3Fe2As2,12.2
Nd1Fe1As1F0.3O0.7,46.0
Fe1Se0.8,10.3
Fe1Se0.779Te0.041,8.12
Fe1Se0.656Te0.164,10.7
Fe1Se0.574Te0.246,10.01
Fe1Se0.492Te0.328,12.7
Fe1Se0.41Te0.41,13.2
Fe1Se0.328Te0.492,13.8
Fe1Se0.246Te0.574,13.7
Fe1Se0.164Te0.656,13.1
Fe1Se0.082Te0.738,10.9
Sr0.6K0.4Fe2As2,35.6
Ba0.6K0.4Fe2As2,38.1
Pr1Fe1As1O1-z,35.0
Fe1.01Se1,8.5
Fe1.02Se1,6.0
Fe1Se0.72,8.0
Ca1Fe2.94Co0.06As2,17.0
Sc1Ru4B4,7.34
Lu1Rh4B4,8.28
Th1Rh4B4,4.69
Y1Rh4B4,10.6
Lu1Rh4B4,11.45
Lu1Ru1B2,10.6
Y1Ru1B2,7.7
Lu1Os3B2,4.69
La3Ni4P4O2,2.2
Ba1Fe1.91Co0.09As2,14.5
Ba1Fe1.878Co0.122As2,24.0
Ba1Fe1.782Co0.218As2,14.1
Ba0.64K0.36Fe2As2,25.6
Nd1Fe1As1F0.2O0.8,32.6
La1Fe1P1O1,4.8
Ba1Fe1.8Co0.2As2,24.0
Lu1Rh4B4,11.5
Lu0.5Ho0.5Rh4B4,8.43
Fe1Se1,9.45
Nb5Si2.8B0.2,5.9
Nb5Si2.6B0.4,6.4
Nb5Si2.4B0.6,7.8
Nb5Si2.2B0.8,6.6
Nb5Si2B1,6.4
La1Ni1C2,2.99
La0.95Y0.05Ni1C2,2.79
La0.9Y0.1Ni1C2,2.29
La0.85Y0.15Ni1C2,2.08
La0.8Y0.2Ni1C2,1.26
La0.75Y0.25Ni1C2,1.65
Ce1Fe0.9Co0.1As1O1,10.0
Ce1Fe0.85Co0.15As1O1,5.0
Ba1Rh2P2,1.0
Ba1Ir2P2,2.1
Ce1Fe1As1F0.1O0.9,38.2
Ce1Fe1As1F0.2O0.8,40.4
Ti1,0.34
Mo0.9Re0.1,2.92
Gd1Ba2Cu3Oz,90.52
Gd1Ba2Cu2.985Mn0.015Oz,91.0
Gd1Ba2Cu2.97Mn0.03Oz,86.18
Gd1Ba2Cu2.94Mn0.06Oz,71.08
Y1Ba2Cu3Oz,91.58
Y1Ba2Cu2.985Mn0.015Oz,92.41
Y1Ba2Cu2.97Mn0.03Oz,92.17
Y1Ba2Cu2.94Mn0.06Oz,91.11
Y1Ba2Cu3Oz,91.2
Y1Ba2Cu2.985Mn0.015Oz,90.3
Y1Ba2Cu2.97Mn0.0225Oz,89.9
Y1Ba2Cu2.97Mn0.03Oz,90.2
Y1Ba2Cu2.94Mn0.06Oz,86.5
Gd1Ba2Cu3Oz,91.8
Gd1Ba2Cu2.985Mn0.015Oz,91.8
Gd1Ba2Cu2.97Mn0.0225Oz,90.4
Gd1Ba2Cu2.97Mn0.03Oz,89.2
Gd1Ba2Cu2.94Mn0.06Oz,86.3
Ga9Rh2,1.95
Ga9Ir2,2.25
Zn1N1Ni3,3.0
Sr1Fe2As2,38.0
La1Fe1As1O0.7,28.4
Ce1Fe1As1O0.7,40.2
Pr1Fe1As1O0.7,48.5
Nd1Fe1As1O0.7,53.7
Sm1Fe1As1O0.7,52.1
Gd1Fe1As1O0.7,53.6
Tb1Fe1As1O0.7,52.2
Dy1Fe1As1O0.7,51.2
Nb1Sr2Eu1.5Ce0.5Cu2O10,30.2
Nb0.6Ru0.4Sr2Eu1.5Ce0.5Cu2O10,37.3
Nb0.6Ru0.6Sr2Eu1.5Ce0.5Cu2O10,41.4
Ru1Sr2Eu1.5Ce0.5Cu2O10,44.3
Ba0.6K0.4Fe2As2,32.0
Th1Pt4Ge12,4.62
Ba1Fe1.924Co0.076As2,6.48
Ba1Fe1.852Co0.148As2,22.5
Bi2.2Sr1.8Ca1Cu2O8+z,92.0
Bi2Sr2Ca0.92Y0.08Cu2O8+z,96.0
Bi1.6Pb0.4Sr2Ca1Cu2O8+z,96.0
Bi1.4Pb0.8Sr2Ca1Cu2O8+z,97.5
Bi1.3Pb0.9Sr2Ca1Cu2O8+z,94.0
Bi1.6Pb0.4Sr2Ca0.9Y0.1Cu2O8+z,94.0
Bi1.6Pb0.4Sr2Ca0.95Y0.05Cu2O8+z,96.0
Bi1.4Pb0.7Sr2Ca0.97Y0.03Cu2O8+z,98.0
Li1Fe1As1,16.0
Li1Fe1As1,12.0
Ba1Fe2As2,28.6
Ba1Fe1.92Co0.08As2,11.0
Ba1Fe1.924Co0.076As2,10.5
Ba1Fe1.906Co0.094As2,16.7
Ba1Fe1.884Co0.116As2,22.8
Ba1Fe1.8Co0.2As2,17.4
Ba1Fe1.772Co0.228As2,10.6
Mg10Ir19B16,4.45
Pd2Hf1Al1,3.8
Pd2Zr1In1,3.1
Pd2Hf1In1,2.4
Pd2Zr0.9Nb0.1Al1,2.1
Pd2Hf0.75Y0.25Al1,3.2
La1Fe0.975Co0.025As1O1,8.58
La1Fe0.95Co0.05As1O1,13.02
La1Fe0.925Co0.075As1O1,12.66
La1Fe0.9Co0.1As1O1,11.02
La1Fe0.875Co0.125As1O1,6.6
Sm1Fe0.95Co0.05As1O1,5.13
Sm1Fe0.925Co0.075As1O1,15.0
Sm1Fe0.9Co0.1As1O1,17.3
Sm1Fe0.875Co0.125As1O1,15.8
Sm1Fe0.85Co0.15As1O1,11.75
Sm1Fe0.8Co0.2As1O1,3.79
Pd2Hf0.5Y0.5Al1,2.9
Sn0.979In0.021Te1,0.936
Sn0.956In0.044Te1,1.017
Sn0.949In0.051Te1,1.653
Sn0.901In0.099Te1,1.746
Pr1Fe1As1O1-z,34.0
Nb2In1C1,7.5
H4Si1,17.0
La0.85Na0.15Fe1As1F0.15O0.85,28.0
La0.8Na0.2Fe1As1F0.2O0.8,23.02
Ba0.6K0.4Fe2As2,34.6
Ba1Fe1.852Co0.148As2,23.0
Ba1Ni2As2,1.095
Fe1Te0.67Se0.33,14.0
Fe1Te0.5Se0.5,14.0
Fe1Se0.88,8.0
Sm1Fe1As1F0.07O0.93,33.0
Sm1Fe1As1F0.1O0.9,41.5
Sm1Fe1As1F0.15O0.85,51.5
Pr0.75Sr0.25Fe1As1O1,16.3
Ba1Pb0.75Bi0.253,12.5
Ba1Pb0.65Hg0.1Bi0.25O3,10.0
Ba1Pb0.55Hg0.2Bi0.25O3,3.83
Ba1Pb0.45Hg0.3Bi0.25O3,4.42
Ba1Pb0.35Hg0.4Bi0.25O3,10.7
Ba0.84Rb0.1Sn0.09Fe2As2,22.6
Fe1Se0.9S0.1,9.94
Fe1Se0.8S0.2,9.23
Sr1Ni2P2,1.415
Eu1Fe2As1.4P0.6,26.0
Ce1Co1In4.9945Cd0.0055,2.222
Ce1Co1In4.9835Cd0.0165,2.15
Ce1Co1In4.9992Hg0.0008,2.254
Ce1Co1In4.9976Hg0.0024,2.252
B105,1.5
Sm1Fe1As1F0.2O0.8,45.0
Li0.5Nb1O2,16.4
La1Fe1As1F0.05O0.95,25.4
La1Fe1As1F0.07O0.93,25.2
La1Fe1As1F0.14O0.86,17.8
Ru7B3,2.8
Ru7B3,3.3
Sr4Sc2Fe2P2O6,17.0
Sr4V2Fe2As2O6,31.5
Li2Pd2.85Ni0.15B1,7.91
Li2Pd2.7Ni0.3B1,7.4
Li2Pd2.4Ni0.6B1,6.91
Re0.999W0.001,1.723
Re0.9993Mo0.0007,1.694
Re0.9467Os0.0533,1.934
La7Ir3,2.33
La1Al2,3.23
Ba1Fe1.945Ni0.055As2,7.4
Ba1Fe1.904Ni0.096As2,20.2
Ba1Fe1.82Ni0.18As2,17.4
Ba1Fe1.77Ni0.23As2,3.53
Ba1Ni2P2,2.51
Fe1.03Te0.7Se0.3,12.4
La1Fe1As1F0.05O0.95,25.5
La1Fe1As1F0.14O0.86,18.0
Ba1Fe2As2,35.0
Ba1Fe2As2,34.0
Ce1Pt1Si2,0.14
La1Fe0.96Ni0.04As1O1,6.5
Sr0.8K0.2Fe2As2,13.6
Sr0.42K0.58Fe2As2,36.0
Sr0.67K0.33Fe2As2,21.7
Sr0.9K0.1Fe2As2,5.11
Sr0.5K0.5Fe2As2,37.7
Ho1Fe1As1O0.85,49.1
Y1Fe1As1O0.85,45.2
Dy1Fe1As1O0.85,51.0
Tb1Fe1As1O0.85,46.8
Sm1Fe1As1O0.85,53.0
Ca1Fe0.93Co0.07F1,9.1
Ca1Fe0.9Co0.1As1F1,23.0
Ca1Fe0.85Co0.15As1F1,21.2
Ca1Fe0.8Co0.2As1F1,16.6
Ca1Fe0.74Co0.26As1F1,3.49
Ca1Fe0.9Ni0.1As1F1,15.4
Ca1Fe0.85Ni0.15As1F1,8.72
Ca1Fe0.8Ni0.2As1F1,3.92
Nd1Fe1As1O0.85,51.9
Nd1Fe1As1O0.6,54.0
La1Fe1As1F0.15O0.85,24.3
La0.7Y0.3Fe1As1F0.15O0.85,36.2
La0.5Y0.5Fe1As1F0.15O0.85,40.2
La0.3Y0.7Fe1As1F0.15O0.85,38.0
C1,9.4
C1,4.75
Ga1P1,6.2
As1Ga1,6.2
In1N1,2.35
In1N1,3.0
Si1C1,1.45
Si1C1,1.4
In2O3,3.2
In2O3,3.4
Ba0.6K0.4Fe2As2,36.5
Ba0.9K0.1Fe2As2,5.0
Ba0.8K0.2Fe2As2,23.6
Ba0.7K0.3Fe2As2,37.5
Tb1Fe1As1F0.1O0.9,50.0
La1Fe1P1O1,6.6
Pr1Fe1P1O1,3.2
Nd1Fe1P1O1,3.1
Pr1Fe1P1O1,3.6
Na1Fe1As1,9.0
Na1Fe1As1,6.0
Na0.9Fe1As1,7.0
Na0.5Fe1As1,12.0
La1.85Sr0.15Cu1O4,45.3
La1.85Sr0.15Cu0.996Zn0.004O4,39.0
La1.85Sr0.15Cu0.992Zn0.008O4,35.7
La1.85Sr0.15Cu0.983Zn0.017O4,22.8
Ni1Zr2,2.44
Fe0.1Ni0.9Zr2,2.65
Fe0.15Ni0.85Zr2,2.31
Fe0.2Ni0.8Zr2,2.13
Fe0.3Ni0.7Zr2,2.02
Fe0.33Ni0.67Zr2,2.13
Fe0.36Ni0.64Zr2,2.04
Fe0.4Ni0.6Zr2,1.78
Fe0.5Ni0.5Zr2,1.25
Fe0.6Ni0.4Zr2,0.2
Ba1Fe1.84Co0.16As2,21.5
Ba1Fe1.77Co0.23As2,16.5
Ba1Fe1.84Co0.16As2,21.8
Ba0.5K0.5Fe2As2,32.0
Ba0.55K0.45Fe2As2,32.0
Ba0.6K0.4Fe2As2,28.2
Na1Fe1As1,15.0
Ge0.92Ga0.08,0.45
Eu1,2.75
Li0.9Mo6O17,10.0
Yb1Al1B4,0.08
Sr1Fe2As2,30.1
Ce1Co1Ge3,0.69
Eu1Fe2As2,29.0
U1Rh1Ge1,0.26
Fe1Se0.92,7.2
Cs1Os2O6,3.25
Rb1Os2O6,6.28
C0.9S0.1,38.0
C1,32.0
C1S1,9.0
Li0.8Fe1As1,17.6
Li1Fe1As1,18.3
Li1.1Fe1As1,20.0
La1Fe1As1O1.0,10.2
La1Fe1As1F0.05O0.95,24.8
La1Fe1As1F0.11O0.89,28.5
La1Fe1As1F0.14O0.86,19.0
Ba2Ca3Cu4F1.2O8.8,102.0
Ba2Ca3Cu4F1.4O8.6,91.0
Ba2Ca3Cu4F1.6O8.4,77.0
Hg1Ba2Ca5Cu6Oz,106.9
Hg1Ba2Ca6Cu7Oz,104.8
Hg1Ba2Ca7Cu8Oz,105.1
Hg1Ba2Ca8Cu9Oz,105.1
Hg1Ba2Ca9Cu10Oz,105.1
Hg1Ba2Ca10Cu11Oz,105.1
Hg1Ba2Ca11Cu12Oz,105.1
Hg1Ba2Ca12Cu13Oz,104.8
Hg1Ba2Ca13Cu14Oz,105.1
Hg1Ba2Ca14Cu15Oz,105.1
Hg1Ba2Ca15Cu16Oz,105.1
Ba2Ca3Cu4F1O9.0,103.0
Ba2Ca3Cu4F1.2O8.8,105.0
Ba2Ca3Cu4F1.6O8.4,79.0
Ba2Ca3Cu4F1.8O8.2,66.0
Ba2Ca3Cu4F2O8,56.0
Ba2Ca1Cu2F1.4O4.6,106.0
Ba2Ca1Cu2F1.6O4.4,108.0
Ba2Ca1Cu2F1.8O4.2,87.0
Ba2Ca1Cu2F2O4,82.0
Ba2Ca1Cu2F2.2O3.8,40.0
Nd1Fe1As1F0.175O0.825,53.0
Ce0.62Gd0.38Fe1As1F0.175O0.825,44.0
La0.62Dy0.38Fe1As1F0.175O0.825,38.0
Sr1Fe2As2,26.3
Tm5Rh6Sn18,2.25
Fe1Se0.25Te0.75,13.2
Fe1Se0.5Te0.5,12.3
Fe1Se0.75Te0.25,13.3
Fe1Se1,9.51
Fe1Se0.9S0.1,10.6
Fe1Se0.8S0.2,10.8
Fe1Se0.7S0.3,5.94
Fe1Se0.6S0.4,3.73
Fe1Se0.5S0.5,2.75
Fe0.95Co0.05Se1,10.0
Fe0.9Co0.1Se1,5.0
Fe0.95Ni0.05Se1,10.0
Ba1Fe1.886Rh0.114As2,24.9
Ba1Fe1.808Rh0.192As2,17.8
Ba1Fe1.914Pd0.086As2,18.9
Ba1Fe1.958Rh0.042As2,5.41
Sr1Fe1.75Rh0.25As2,21.9
Sr1Fe1.57Ir0.43As2,24.2
Sr1Fe1.85Pd0.15As2,8.7
Fe1Se1,8.8
Ca1Fe2As2,11.6
Ce2Pd1In8,0.68
Sm1Fe1As1F0.09O0.91,42.0
Sm1Fe1As1F0.2O0.8,52.0
La1Fe0.95Ir0.05As1O1,7.18
La1Fe0.925Ir0.075As1O1,11.85
La1Fe0.9Ir0.1As1O1,10.9
La1Fe0.875Ir0.125As1O1,4.56
Sr1Fe2As2,21.0
Fe1Se0.85,8.26
Sr1Fe1.75Co0.25As2,13.3
Li0.1Zr1N1Cl1,14.0
Li0.28Zr1N1Cl1,11.6
Ba1Fe1.906Co0.094As2,17.0
Ni0.05Ta1S2,3.05
Fe0.05Ta1S2,3.0
M0.5Ta1S2,3.2
Ta1S2,0.8
Ta1Se2,0.15
Mg9.3Ir19B16.7,5.8
Mg10.5Ir19B17.1,4.8
Ba1Pt1Si3,2.0
Sr1Al1Si1,4.7
Sr1Al1Ge1,6.7
Ba1Al1Ge1,6.3
Ba1Al1Sn1,2.9
Ca1Ga1Si1,4.4
Sr1Ga1Si1,4.9
Ba1Ga1Si1,4.2
Sr1Ga1Ge1,2.6
Ba1Ga1Ge1,2.4
Sr1Fe2As2,23.0
Tb1Fe1As1F0.1O0.9,51.0
Dy1Fe1As1F0.1O0.9,45.0
Ho1Fe1As1F0.1O0.9,36.0
Sm1Fe1As1F0.085O0.915,14.0
Sm1Fe1As1F0.2O0.8,50.0
Nb6Sn5,2.8
Tb1Fe1As1O0.9,22.8
Tb1Fe1As1O0.85,42.0
Tb1Fe1As1O0.82,43.8
Tb1Fe1As1O0.8,35.7
Tb1Fe1As1O0.75,34.8
Tb1Fe1As1O0.7,14.9
Ba1Fe1.924Co0.076As2,6.85
Ba1Fe1.906Co0.094As2,14.6
Ba1Fe1.884Co0.116As2,22.7
Ba1Fe1.844Co0.156As2,21.7
Ba1Fe1.8Co0.2As2,15.5
Ba1Fe1.772Co0.228As2,8.52
Ba1Fe1.952Ni0.048As2,2.39
Ba1Fe1.936Ni0.064As2,14.6
Ba1Fe1.908Ni0.092As2,17.8
Ba1Fe1.892Ni0.108As2,13.9
Ba1Fe1.856Ni0.144As2,5.1
U1Co1Ge1,0.5
U1Co1Ge1,0.6
Ba0.8K0.2Fe2As2,25.3
Ba1Fe1.84Co0.16As2,22.0
La0.96Sr0.04Fe1As1O1,3.65
La0.92Sr0.08Fe1As1O1,18.9
La0.9Sr0.1Fe1As1O1,24.6
La0.89Sr0.11Fe1As1O1,25.5
La0.87Sr0.13Fe1As1O1,25.9
La0.85Sr0.15Fe1As1O1,25.4
La0.8Sr0.2Fe1As1O1,24.9
Pr0.95Sr0.05Fe1As1O1,4.86
Pr0.9Sr0.1Fe1As1O1,12.8
Pr0.85Sr0.15Fe1As1O1,15.5
Pr0.75Sr0.25Fe1As1O1,16.2
Sr2Ca12Cu24O41,9.25
Lu2Fe3Si5,6.15
Lu2Fe3Si5,5.85
Lu1.9Y0.1Fe3Si5,4.16
Lu1.86Sc0.14Fe3Si5,3.51
Lu1.94Dy0.06Fe3Si5,4.52
Lu1.9Dy0.1Fe3Si5,3.77
Lu1.94Sc0.06Fe3Si5,4.83
Lu1.9Sc0.1Fe3Si5,4.33
Lu1.86Y0.14Fe3Si5,3.51
Sr1Fe1.5Ru0.5As2,13.5
Sr1Fe1.3Ru0.7As2,13.5
Bi4Rh1,3.15
Bi14Rh3,2.85
Bi3Rh1,3.15
Ca2Pt3Si5,1.3
Fe1Se0.88,8.69
Fe1Se0.5Te0.5,8.47
Sr2Ru1O4,0.9
Fe1Se0.5Te0.5,13.0
Fe1Se0.38Te0.62,13.5
Fe1Se0.25Te0.75,12.0
Fe1Se0.13Te0.87,6.0
Fe1Se1,8.5
Fe1Se0.39Te0.61,14.0
Bi1.09Ta1Se3.09,1.8
Bi1.09Ta2Se5.09,1.8
Bi1.09Ta2S5.09,2.65
Pb1.14Nb2Se5.14,3.4
Pb1.14Nb3Se7.14,4.8
Fe1.06Te0.5Se0.5,14.0
Ce1Cu2Si2,0.46
Sm1Fe1As1O0.85,50.5
Sm1Fe1As1F0.2O0.8,42.0
Pr1Fe1As1F0.082O0.918,14.6
Pr1Fe1As1F0.154O0.846,46.4
Pr1Fe1As1F0.225O0.775,50.0
Fe1Se0.25Te0.75,13.7
La1.943Sr0.057Cu1O4,4.51
La1.943Sr0.076Cu1O4,16.5
La1.943Sr0.089Cu1O4,24.6
La1.943Sr0.115Cu1O4,24.9
La1.943Sr0.13Cu1O4,33.3
La1.943Sr0.178Cu1O4,34.3
La1.885Sr0.115Cu1O4,29.3
La1.8Sr0.2Cu1O4,30.6
La1.74Sr0.26Cu1O4,6.4
La1.84Sr0.16Cu0.985Zn0.015O4,21.8
La1.82Sr0.18Cu0.98Zn0.02O4,17.9
La1.78Sr0.22Cu0.98Zn0.02O4,9.51
La1.822Sr0.178Cu1O4,36.0
La1.798Sr0.202Cu1O4,30.5
La1.782Sr0.218Cu1O4,25.0
La1.762Sr0.238Cu1O4,19.5
Ca1Fe1.94Ni0.06As2,15.0
La1Fe1As1F0.1O0.9,29.4
La1Fe1As1F0.1O0.9,17.0
Fe1Se1,7.1
Fe1Se0.8,7.0
Ba0.55K0.45Fe2As2,29.75
Gs1,7.62
Fe1Se0.82,7.83
Fe0.99Ni0.01Se0.82,6.65
Fe0.98Ni0.02Se0.82,11.3
C6Ca1H,10.0
U1Ru2Si2,1.51
Fe1Te0.6Se0.4,14.8
Fe1.18Te0.6Se0.4,11.6
C8K1H0.19,0.22
Ga1V3H0.37,8.1
Ge1V3H0.033,5.83
Ba0.75K0.25Fe2As2,26.0
Ba0.72K0.28Fe2As2,30.0
Fe1.03Se0.25Te0.75,12.5
Fe1.03Se0.5Te0.5,14.3
Ti1Se2,1.8
Fe1Se0.25Te0.75,14.0
Bi2Sr1.6La0.4Cu1O6+z,32.83
Bi2Sr1.6Nd0.4Cu1O6+z,30.07
Bi2Sr1.6Eu0.4Cu1O6+z,16.9
Bi2Sr1.6Gd0.4Cu1O6+z,12.27
Fe1.12Se0.03Te0.97,6.5
Fe1.13Se0.1Te0.85,5.25
Fe1.12Se0.11Te0.83,6.05
Fe1.06Se0.14Te0.83,7.85
Fe0.98Se0.15Te0.9,8.8
Fe1Se0.1Te0.9,10.0
Fe1.049Se0.2Te0.8,11.0
Fe1.053Se0.3Te0.7,12.5
Fe1.013Se0.3Te0.7,13.0
Fe1Se0.45Te0.55,12.6
K1Os2O6,9.65
Sr2V1Fe1As1O3,34.45
Sr2Sc1Fe1P1O3,12.0
Ce1Co1Ge3,0.64
Sm1Fe1As1F0.12O0.88,17.1
Sm1Fe1As1F0.14O0.86,27.0
Sm1Fe1As1F0.15O0.85,41.8
Sm1Fe1As1F0.2O0.8,51.8
Sm1Fe1As1F0.1O0.9,12.0
Sr0.6La0.4Fe1As1F1,27.05
Ca0.4Nd0.6Fe1As1F1,54.0
Ca0.4Pr0.6Fe1As1F1,50.0
Y1Ba2Cu4O8,74.5
Y0.95Sc0.05Ba2Cu4O8,79.0
Y0.9Sc0.1Ba2Cu4O8,81.0
Y0.8Sc0.2Ba2Cu4O8,87.0
Y0.95Ga0.05Ba2Cu4O8,75.0
Y0.9Ga0.1Ba2Cu4O8,74.0
Y0.8Ga0.2Ba2Cu4O8,69.0
Pr1Fe0.925Co0.075As1O1,15.0
Gd1Ba1Sr1Cu3O6.9371,76.5
Gd0.99Ca0.01Ba1Sr1Cu3O6.9198,70.5
Gd0.96Ca0.04Ba1Sr1Cu3O6.9138,71.0
Gd0.93Ca0.07Ba1Sr1Cu3O6.8804,53.5
Gd0.9Ca0.1Ba1Sr1Cu3O6.8754,43.0
Pr1Fe1As1O0.7,44.0
Lu1Ba2Cu3O7-z,81.0
Y3Ba5Cu8O18,100.1
La1Fe1P1O1,7.4
Ba0.6K0.4Fe2As2,37.8
Sm1Fe1As1F0.15O0.85,41.5
Sm1Fe1As1F0.15O0.85,41.0
Ba0.6K0.4Fe2As2,37.3
Ba1Fe2As1.6P0.4,7.2
Ba1Fe2As1.52P0.48,30.1
Ba1Fe2As1.36P0.64,29.1
Ba1Fe2As1.28P0.72,22.4
Ba1Fe2As1.06P0.94,20.8
Ba1Fe2As0.88P1.12,13.9
Ba1Fe2As0.74P1.26,7.73
Li1Fe1P1,6.0
Sr1Fe1.88Ni0.12As2,3.74
Sr1Fe1.84Ni0.16As2,8.65
Sr1Fe1.8Ni0.2As2,7.4
Sr1Fe1.78Ni0.22As2,2.34
La1Fe1As0.8P0.2O1,7.0
La1Fe1As0.75P0.25O1,10.3
La1Fe1As0.7P0.3O1,10.8
La1Fe1As0.6P0.4O1,5.0
Sr1Fe1.9Ni0.1As2,5.5
Sr1Fe1.88Ni0.12As2,8.1
Sr1Fe1.85Ni0.15As2,8.66
Sr1Fe1.82Ni0.18As2,9.6
Sr1Fe1.78Ni0.22As2,2.27
Fe1.11Te0.6Se0.4,14.0
Ca1Fe1.92Co0.08As2,20.4
Ba0.7K0.3Fe2As2,36.5
Ba0.5K0.5Fe2As2,36.0
Ba0.4K0.6Fe2As2,29.7
Ca1Fe1As1F1,29.0
Ca1Fe0.9Co0.1As1F1,23.8
Ca1Fe0.85Co0.15As1F1,20.4
Ca1Fe0.8Co0.2As1F1,16.4
La1Fe1As1O1,21.0
La1Fe1As1F0.05O0.95,24.9
La1Fe1As1F0.08O0.92,30.4
La1Fe1As1F0.11O0.89,28.6
Ba1Fe1.85Co0.15As2,21.4
Sr0.5Sm0.5Fe1As1F1,53.5
Cu0.12Bi2Se3,3.8
La1.875Ba0.125Cu1O4,3.0
Na1Fe0.99Co0.01As1,17.9
Na1Fe0.975Co0.025As1,21.1
Na1Fe0.95Co0.05As1,16.0
Na1Fe0.93Co0.07As1,14.0
Na1Fe0.975Ni0.025As1,15.4
U1Co1Ge1,0.65
Nb1Se2,7.4
Ga0.05Nb1Se2,5.6
Ga0.1Nb1Se2,2.7
Nb1S2,5.4
Nb1Se2,6.9
Nb1Te2,0.6
Ta1S2,1.6
Ta1Se2,0.2
Nd1Fe0.9Rh0.1As1O1,15.0
Nd1Fe1As1F0.12O0.88,52.0
Nb1Te2,0.74
Ta1S2,2.1
Ta1Se2,0.22
Mo1Sr2Y1Cu2O8,21.0
Mo1Sr2Y0.8Ca0.2Cu2O8,26.0
Ta1S2,0.7145
Ni0.02Ta1S2,3.325
Ni0.04Ta1S2,4.095
Ni0.05Ta1S2,2.305
Ni0.06Ta1S2,1.9
La0.87Sr0.13Fe1As1O1,20.0
La0.77Sm0.1Sr0.13Fe1As1O1,18.0
Pr1Fe0.95Co0.05As1O1,4.7
Pr1Fe0.9Co0.1As1O1,13.8
Pr1Fe0.85Co0.15As1O1,5.9
Pr1Fe0.8Co0.2As1O1,4.0
Pr1Fe0.7Co0.3As1O1,4.0
Fe1Se0.94,8.3
Nd1Fe0.95Rh0.05As1O1,7.1
Nd1Fe0.9Rh0.1As1O1,16.6
Nd1Fe0.85Rh0.15As1O1,14.7
Nd1Fe0.8Rh0.2As1O1,10.0
Ba1Fe1.904Co0.096As2,17.1
Ba1Fe1.852Co0.148As2,22.2
Ba1Fe1.784Co0.216As2,14.6
Ba1Fe1.772Co0.228As2,10.1
Ce2Pd1In8,0.7
Ba1Fe2As1.34P0.66,30.0
Ba1Fe1.8Co0.2As2,20.0
Fe1.08Te1Ox,10.0
Fe1Te0.9S0.1,10.0
Fe1Te0.8S0.2,8.6
Ba4C60,6.8
Sm1Fe1As1O0.67,55.0
Fe1.035Te0.78Se0.22,6.0
Fe1.013Te0.68Se0.32,11.0
Tl0.25Li0.25Ba2Ca1Mg1Cu3.45Co0.05O10-z,112.0
Tl0.25Li0.25Ba2Ca1Be1Cu3.45Co0.05O10-z,105.0
Tl0.5Ba2Ca2Cu3.45Co0.05O10-z,104.0
Tl0.5Ba2Ca1Mg1Cu3.45Co0.05O10-z,96.0
Tl0.5Ba2Ca1Be1Cu3.45Co0.05O10-z,90.0
Ce1Pd5Al2,0.9
La1Ru2Zn20,0.2
La1Ir2Zn20,0.6
Pr1Ir2Zn20,0.05
La1Fe0.95Rh0.05As1O1,12.0
La1Fe0.9Rh0.1As1O1,14.0
La1Fe0.85Rh0.15As1O1,14.0
Li0.16Zr1N1Cl1,12.6
Li0.16M0.3Zr1N1Cl1,15.0
Li0.16M1Zr1N1Cl1,15.0
Na0.28Hf1N1Cl1,22.8
Na0.28M1Hf1N1Cl1,24.6
Sr2Ca12Cu24O41,9.1
Y1Ba2Cu4O8,79.8
Y1Ba2Cu3.96Co0.04O8,57.9
Y1Ba2Cu3.92Co0.08O8,36.2
Y1Ba2Cu3.88Co0.12O8,16.9
Y1Ba2Cu3.96Ni0.04O8,62.4
Y1Ba2Cu3.92Ni0.08O8,44.6
Y1Ba2Cu3.88Ni0.12O8,28.5
Pd0.11Ti1Se2,1.82
Pd0.12Ti1Se2,1.93
Ba1Fe1.73Co0.27As2,8.1
Ba1Fe1.9Pt0.1As2,25.2
Ba1Fe1.85Pt0.15As2,23.4
Ba1Fe1.75Pt0.25As2,21.1
Fe1.04Te0.95Se0.05,11.0
Fe1Te0.925Se0.075,11.5
Fe1.03Te0.9Se0.1,11.9
Fe1.02Te0.85Se0.15,12.7
Fe1.02Te0.8Se0.2,13.6
Fe1Te0.5Se0.5,15.0
Pb0.99Tl0.01Te1,1.3
Pb0.985Tl0.01In0.005Te1,0.954
Pb0.982Tl0.01In0.008Te1,0.818
Ce1Ir1Ge3,1.61
La1Ni1As1O1,2.98
La1Ni1As1F0.06O0.94,3.64