composition,critical_temperature_tc
Sm0.2Pr0.3Ca0.5Ba2Cu3O7-z,98.0
Eu0.2Pr0.3Ca0.5Ba2Cu3O7-z,96.0
Gd0.2Pr0.3Ca0.5Ba2Cu3O7-z,96.0
Y0.2Pr0.3Ca0.5Ba2Cu3O7-z,105.0
Ru1Sr2Gd1Cu2O8,40.75
Bi0.8Pb0.1S0.1Sr2Ca0.7Nd0.3Cu2O6.95,75.0
Bi0.6Pb0.2S0.2Sr2Ca0.7Nd0.3Cu2O6.95,80.0
Bi0.5Pb0.25S0.25Sr2Ca0.7Nd0.3Cu2O6.97,75.0
Bi0.2Pb0.4S0.4Sr2Ca0.7Nd0.3Cu2O6.99,78.0
La1.85Sr0.15Cu1O4,37.5
La1.75Pr0.1Sr0.15Cu1O4,37.4
La1.35Pr0.5Sr0.15Cu1O4,34.3
La0.85Pr1Sr0.15Cu1O4,32.6
La0.65Pr1.2Sr0.15Cu1O4,31.4
La0.55Pr1.3Sr0.15Cu1O4,29.6
La1.85Sr0.15Cu0.99Fe0.01O4,33.0
La1.84Sr0.16Cu0.99Fe0.01O4,35.0
La1.83Sr0.17Cu0.98Fe0.02O4,31.0
La1.82Sr0.18Cu0.97Fe0.03O4,29.0
Sr11Ca10Cu24O41,3.0
Sr11Ca12Cu24O41,5.0
Sr2Ca12Cu24O41,4.8
Bi2Sr2Ca1Cu2O8,69.4
Y0.7Pr0.3Ba2Cu3O6.942,60.6
Y0.6Pr0.4Ba2Cu3O6.929,45.3
Y0.9Pr0.05Ca0.05Ba2Cu3O7-z,86.2
Y0.8Pr0.1Ca0.1Ba2Cu3O7-z,83.0
Y0.7Pr0.15Ca0.15Ba2Cu3O7-z,75.8
Y0.98Ca0.02Ba2Cu3O7-z,90.5
Y0.95Ca0.05Ba2Cu3O7-z,88.6
Y0.92Ca0.08Ba2Cu3O7-z,87.0
Y0.95Pr0.05Ba2Cu3O7-z,91.8
Y0.93Pr0.05Ca0.02Ba2Cu3O7-z,89.4
Y0.91Pr0.05Ca0.04Ba2Cu3O7-z,87.3
Y0.89Pr0.05Ca0.06Ba2Cu3O7-z,85.9
Y0.9Pr0.1Ba2Cu3O7-z,88.8
Y0.88Pr0.1Ca0.02Ba2Cu3O7-z,87.0
Y0.86Pr0.1Ca0.04Ba2Cu3O7-z,85.5
Y0.84Pr0.1Ca0.06Ba2Cu3O7-z,84.6
Y0.82Pr0.1Ca0.08Ba2Cu3O7-z,83.4
Bi1.6Pb0.4Sr1.6La0.4Cu1Oz,34.8
Bi1.6Pb0.4Sr1.6La0.4Cu0.99Mn0.01Oz,30.9
Bi1.6Pb0.4Sr1.6La0.4Cu0.98Mn0.02Oz,26.1
Bi1.6Pb0.4Sr1.6La0.4Cu0.97Mn0.03Oz,20.1
La1.84Sr0.16Cu0.99Mn0.01O4,30.4
La1.83Sr0.17Cu0.98Mn0.02O4,18.1
Tl2Ba2Ca1Cu2O8+z,108.0
Tl2Ba2Ca1Cu1.96Co0.04O8+z,101.3
Tl2Ba2Ca1Cu1.92Co0.08O8+z,94.2
Tl2Ba2Ca1Cu1.88Co0.12O8+z,88.5
Tl2Ba2Ca0.95Y0.05Cu2O8+z,106.5
Tl2Ba2Ca0.95Y0.05Cu1.96Co0.04O8+z,102.4
Tl2Ba2Ca0.95Y0.05Cu1.92Co0.08O8+z,92.6
Tl2Ba2Ca0.95Y0.05Cu1.88Co0.12O8+z,85.5
Tl2Ba2Ca0.9Y0.1Cu2O8+z,105.8
Tl2Ba2Ca0.9Y0.1Cu1.96Co0.04O8+z,97.9
Tl2Ba2Ca0.9Y0.1Cu1.92Co0.08O8+z,88.5
Tl2Ba2Ca0.9Y0.1Cu1.88Co0.12O8+z,78.0
Tl2Ba2Ca0.85Y0.15Cu2O8+z,102.8
Tl2Ba2Ca0.85Y0.15Cu1.96Co0.04O8+z,86.7
Tl2Ba2Ca0.85Y0.15Cu1.92Co0.08O8+z,76.2
Tl2Ba2Ca0.85Y0.15Cu1.88Co0.12O8+z,61.6
Tl2Ba2Ca0.8Y0.2Cu2O8+z,77.7
Tl2Ba2Ca0.8Y0.2Cu1.96Co0.04O8+z,66.8
Tl2Ba2Ca0.8Y0.2Cu1.92Co0.08O8+z,60.1
Tl2Ba2Ca0.8Y0.2Cu1.88Co0.12O8+z,45.1
Tl2Ba2Ca0.75Y0.25Cu2O8+z,54.8
Tl2Ba2Ca0.75Y0.25Cu1.96Co0.04O8+z,39.9
Tl2Ba2Ca0.75Y0.25Cu1.92Co0.08O8+z,29.7
Tl2Ba2Ca0.75Y0.25Cu1.88Co0.12O8+z,19.3
Tl2Ba2Ca0.7Y0.3Cu2O8+z,31.6
Tl2Ba2Ca0.7Y0.3Cu1.96Co0.04O8+z,21.5
Na0.31Co1H2.6O3.3,4.3
Y1Ba2Cu2.75Al0.25O7-z,80.8
Y0.9Eu0.13Ba1.97Cu2.87Al0.29O7-z,72.6
Y0.88Eu0.17Ba1.95Cu2.82Al0.32O7-z,67.5
Y0.74Eu0.35Ba1.91Cu2.81Al0.3O7-z,59.9
Y0.68Eu0.39Ba1.93Cu2.73Al0.32O7-z,47.5
Y0.52Eu0.58Ba1.9Cu2.69Al0.42O7-z,42.4
Bi2Sr2Ca0.9Er0.1Cu2O8,87.0
Bi2Sr2Ca0.9Pr0.1Cu2O8,86.0
Bi2Sr2Ca0.75Pr0.25Cu2O8,88.0
Bi2Sr2Ca0.57Pr0.43Cu2O8,48.0
Ru0.9Sr2Y1Cu2.1O7.9,30.0
La0.68Eu0.2Sr0.12Cu1O4,5.0
Y1Ba2Cu3O7-z,93.1
Y1Ba2.98La0.02Cu3O7-z,94.0
Y1Ba2.95La0.05Cu3O7-z,94.5
Y1Ba2.92La0.08Cu3O7-z,94.2
Y1Ba2.88La0.12Cu3O7-z,93.3
Y1Ba2.85La0.15Cu3O7-z,89.9
Y1Ba2.98Pr0.02Cu3O7-z,93.3
Y1Ba2.95Pr0.05Cu3O7-z,92.7
Y1Ba2.92Pr0.08Cu3O7-z,91.2
Y1Ba2.88Pr0.12Cu3O7-z,88.2
Y1Ba2.85Pr0.15Cu3O7-z,83.6
Y1Ba2.95Nd0.05Cu3O7-z,93.7
Y1Ba2.92Nd0.08Cu3O7-z,93.5
Y1Ba2.88Nd0.12Cu3O7-z,93.2
Y1Ba2.85Nd0.15Cu3O7-z,93.2
Yb1Ba2Cu3O7-z,91.0
Yb0.98Pr0.02Ba2Cu3O7-z,91.3
Yb0.96Pr0.04Ba2Cu3O7-z,91.6
Yb0.94Pr0.06Ba2Cu3O7-z,91.5
Yb0.92Pr0.08Ba2Cu3O7-z,91.2
Yb0.9Pr0.1Ba2Cu3O7-z,89.9
Yb0.85Pr0.15Ba2Cu3O7-z,87.5
Yb0.8Pr0.2Ba2Cu3O7-z,82.9
Yb0.75Pr0.25Ba2Cu3O7-z,76.1
Yb0.7Pr0.3Ba2Cu3O7-z,68.0
Li0.34Rb1Ca2Nb3O10,3.5
Li0.46Rb1Ca2Nb3O10,3.51
Li0.62Rb1Ca2Nb3O10,2.7
Li0.46Cs1Ca2Nb3O10,5.29
Li0.34Rb1Sr2Nb3O10,6.01
Li0.34K1Ca2Nb3O10,5.42
Ru1Sr2Sm1Cu2O8,12.0
Ru1Sr2Eu1Cu2O8,17.0
Ba0.445K0.555Bi1O3,17.0
Ba0.19K0.81Bi1O3,8.4
K1Bi1O3,9.0
Ba0.6Rb0.4Bi1O3,29.0
Ru1Sr2Gd1Cu2O8,38.0
Ru1Sr2Gd0.91Nd0.09Cu2O8,23.5
Ru1Sr2Gd0.82Nd0.18Cu2O8,21.0
Pb0.5Eu1.75Sr1.75Ce0.5Cu2.5Oz,17.5
Tl0.5Pb0.5Sr2Eu1.8Ce0.2Cu2O9,40.0
Pb0.5Sr1.75Nd0.25Eu1.5Ce0.5Cu2.5O9,32.0
Pb0.5Cd0.5Sr1.8Eu1.6Ce0.6Cu2O9,39.0
Pb0.5Cd0.5Sr1.8Eu1.6Ce0.6Cu2O9,15.5
Pb0.5Sr1.45Gd1.95La0.6Cu2.5Oz,20.0
La1.52Nd0.4Sr0.08Cu1O4,9.34
La1.5Nd0.4Sr0.1Cu1O4,9.1
La1.48Nd0.4Sr0.12Cu1O4,6.06
La1.45Nd0.4Sr0.15Cu1O4,13.6
La1.42Nd0.4Sr0.18Cu1O4,17.2
La1.4Nd0.4Sr0.2Cu1O4,17.7
La1.35Nd0.4Sr0.25Cu1O4,8.33
Hg0.65V0.35Sr2.4Nd0.6Cu2O6+z,67.0
Hg0.65V0.35Sr2.5Nd0.5Cu2O6+z,82.0
Hg0.6V0.4Sr2.47Nd0.53Cu2O6+z,67.0
La1.5Nd0.5Ca1Ba2Cu5O11.583,79.0
La1.5Nd0.5Ca1Ba2Cu4.95Mo0.05O11.345,76.0
La1.5Nd0.5Ca1Ba2Cu4.85Mo0.15O11.322,70.0
La1.5Nd0.5Ca1Ba2Cu4.75Mo0.25O11.143,70.0
La1.5Nd0.5Ca1Ba2Cu4.5Mo0.5O11.119,50.0
Hg1Ba2Ca1Cu2O6+z,121.0
Hg0.8Tl0.2Ba2Ca1Cu2O6+z,124.0
La1.8Nd0.2Cu1O4.025,15.9
La1.8Nd0.2Cu1O4.04,26.3
La1.8Nd0.2Cu1O4.059,26.7
La1.8Nd0.2Cu1O4.07,35.3
La1.8Nd0.2Cu1O4.071,34.8
La1.8Nd0.2Cu1O4.086,35.9
La1.8Nd0.2Cu1O4.093,25.6
La1.8Nd0.2Cu0.99Zn0.01O4.086,35.6
La1.95Bi0.05Cu1O4.075,25.7
La1.95Bi0.05Cu0.99Zn0.01O4.093,22.7
La1.81Sr0.19Cu0.98Mn0.02O4,37.0
La1.77Sr0.23Cu0.96Mn0.04O4,37.0
La1.73Sr0.27Cu0.94Mn0.06O4,37.0
Tl0.54Pb0.5Sr1.7Ba0.3Ca2Cu3Oz,120.6
Tl0.54Pb0.49Te0.01Sr1.7Ba0.3Ca2Cu3Oz,120.6
Tl0.54Pb0.45Te0.05Sr1.7Ba0.3Ca2Cu3Oz,120.2
Tl0.54Pb0.4Te0.1Sr1.7Ba0.3Ca2Cu3Oz,119.0
Bi2Sr2Ca1Cu2O8+z,57.0
Bi2Sr2Ca1Cu2O8+z,74.3
Bi2Sr2Ca1Cu2O8+z,92.2
Bi2Sr2Ca1Cu2O8+z,83.0
Y0.99La0.01Ba2Cu3O7.07,91.0
Y0.9La0.1Ba2Cu3O6.97,91.0
Y0.8La0.2Ba2Cu3O6.9,84.0
Y0.7La0.3Ba2Cu3O6.92,83.0
Y0.6La0.4Ba2Cu3O6.92,85.0
Y0.5La0.5Ba2Cu3O7.01,86.0
Y0.4La0.6Ba2Cu3O6.99,85.0
Y0.3La0.7Ba2Cu3O6.98,82.0
Y0.2La0.8Ba2Cu3O7,81.0
Y0.1La0.9Ba2Cu3O7.05,79.0
La1Ba2Cu3O6.95,74.0
Mo1Sr2Sm1.5Ce1Cu2O10,18.0
Mo1Sr2Eu1.5Ce1Cu2O10,23.0
Ru1Sr2Gd1Cu2O8,36.7
Ru0.6Sn0.4Sr2Gd1Cu2O8,18.05
Ru0.8Sn0.2Sr2Gd1Cu2O8,38.2
Ru0.925Sn0.075Sr2Gd1Cu2O8,37.8
Ru0.975Sn0.025Sr2Gd1Cu2O8,36.9
Ru0.9Nb0.1Sr2Gd1Cu2O8,11.65
Ru1Sr2Eu1Cu2O8,30.0
Ru1Sr2Gd0.6Dy0.4Cu2O8,43.25
Ru1Sr2Gd0.9Y0.1Cu2O8,32.2
Ru1Sr2Gd1Cu1.9Li0.1O8,19.0
Pr1.87Ce0.13Cu1O4,10.0
Pr1.86Ce0.14Cu1O4,21.0
Pr1.85Ce0.15Cu1O4,23.0
Pr1.83Ce0.17Cu1O4,13.0
Pr1.8Ce0.2Cu1O4,6.0
La1.48Nd0.4Sr0.12Cu1O4,11.0
La1.45Nd0.4Sr0.15Cu1O4,15.0
Gd1Ba2Cu3O6.99,90.9
Gd1Ba1.95Pr0.05Cu3O7.03,86.8
Gd1Ba1.9Pr0.1Cu3O7.03,63.3
Gd1Ba1.85Pr0.15Cu3O7.09,55.8
Gd1Ba1.8Pr0.2Cu3O7.01,44.5
Gd1Ba1.75Pr0.25Cu3O7.06,39.2
Gd1Ba1.7Pr0.3Cu3O7.06,22.9
Gd1Ba1.65Pr0.35Cu3O6.97,10.0
Nd1.85Ce0.15Cu1O4.014,25.0
Nd1.85Ce0.15Cu1O4.026,21.1
Nd1.85Ce0.15Cu1O4.028,21.1
Nd1.85Ce0.15Cu1O4.034,18.1
Nd1.85Ce0.15Cu1O4.037,9.1
La1.8Nd0.2Cu1O4.0641,25.1
La1.8Nd0.2Cu0.99Zn0.01O4.0631,4.87
La1.95Bi0.05Cu1O4.0635,34.9
La1.95Bi0.05Cu0.99Zn0.01O4.0628,24.2
La1.8Pr0.2Cu1O4.0631,20.2
Ru0.8Sr2Y1Cu2.2O7.8,43.0
Ru0.8Sr2Y1Cu2.2O8.1,65.0
Ru0.9Sr2Er1Cu2O7.8,23.0
Sr2Ru1O4,1.0
Na0.75Co1H2.6O3.3,4.5
Ru0.95Sn0.05Sr2Gd1Cu2O8,30.0
Na0.35Co1H2.6O3.3,4.6
Na0.35Co1H2.6O3.3,4.7
Ru1Sr2Sm1.4Ce0.6Cu2O10-z,28.0
Ru1Sr2Sm1.4Ce0.6Cu2O10-z,32.0
Y1Ba2Cu2.5Fe0.5O7.35,80.0
Fe1Sr2Y1Cu2O7.66,43.5
Fe1Sr2Y1Cu2O7.68,50.0
Y1Ba1.9Nd0.1Cu3Oz,91.6
Y0.95Ca0.05Ba1.9Nd0.1Cu3Oz,87.2
Y0.9Ca0.1Ba1.9Nd0.1Cu3Oz,83.7
Y0.85Ca0.15Ba1.9Nd0.1Cu3Oz,84.2
Y0.8Ca0.2Ba1.9Nd0.1Cu3Oz,82.7
Y0.75Ca0.25Ba1.9Nd0.1Cu3Oz,80.1
Y0.7Ca0.3Ba1.9Nd0.1Cu3Oz,80.6
Y0.6Ca0.4Ba1.9Nd0.1Cu3Oz,80.3
Ru1Sr2Gd1Cu2O8,43.0
Ru1Sr1.98La0.02Gd1Cu2O8,20.6
Ru1Sr2Eu1Cu2O8,23.5
Ru1Sr1.98La0.02Eu1Cu2O8,14.0
Ru1Sr1.94La0.06Eu1Cu2O8,7.0
Ru0.7Sn0.3Sr2Gd1Cu2O8,11.0
Ru1Sr2Gd1.4Ce0.6Cu2O10+z,45.0
Ru0.97Pb0.03Sr2Gd1.4Ce0.6Cu2O10+z,38.0
Ru0.8Pb0.2Sr2Gd1.4Ce0.6Cu2O10+z,21.0
Ru0.6Pb0.4Sr2Gd1.4Ce0.6Cu2O10+z,9.76
Fe1Sr2Y1Cu2O6+z,50.0
Fe1Sr2Er1Cu2O6+z,50.0
Ru0.75Mo0.25Sr2Gd1.4Ce0.6Cu2O10+z,17.5
Ru0.5Mo0.5Sr2Gd1.4Ce0.6Cu2O10+z,13.5
Ru1Sr2Gd1Cu2O8,41.0
Ru0.99Ti0.01Sr2Gd1Cu2O8,36.3
Ru0.97Ti0.03Sr2Gd1Cu2O8,40.3
Ru0.95Ti0.05Sr2Gd1Cu2O8,32.2
Ru0.925Ti0.075Sr2Gd1Cu2O8,29.2
Ru0.95Rh0.05Sr2Gd1Cu2O8,36.3
Ru0.925Rh0.075Sr2Gd1Cu2O8,29.8
Ru0.9Rh0.1Sr2Gd1Cu2O8,19.3
Ru0.8Rh0.2Sr2Gd1Cu2O8,12.9
Ru0.9Pb0.1Sr2Gd1.4Ce0.6Cu2O10+z,29.1
La1.83Sr0.15Na0.02Cu1O4,37.0
La1.8Sr0.15Na0.05Cu1O4,37.0
La1.75Sr0.15Na0.1Cu1O4,37.0
La1.7Sr0.15Na0.15Cu1O4,37.0
La1.55Sr0.15Na0.3Cu1O4,37.0
Na0.3Co1H2.6O3.3,4.8
Na0.3Co1H2.8O3.4,4.5
Na0.3Co1D2.8O3.4,4.5
Na0.3Co1H2.6O3.3,5.0
Na0.3Co1H2.6O3.3,4.7
Ru1Sr2Gd1.4Ce0.6Cu2O10,45.0
Ru1Sr2Eu1.4Ce0.6Cu2O10,44.0
La1.85Sr0.15Cu0.99Ru0.01O4,20.5
La1.85Sr0.15Cu0.98Ru0.02O4,10.8
La1.85Sr0.15Cu0.97Ru0.03O4,10.8
La1.83Sr0.17Cu0.99Ru0.01O4,31.1
La1.825Sr0.175Cu0.99Ru0.01O4,29.6
La1.82Sr0.18Cu0.99Ru0.01O4,28.3
La1.81Sr0.19Cu0.99Ru0.01O4,26.5
La1.79Sr0.21Cu0.99Ru0.01O4,22.1
La1.81Sr0.19Cu0.98Ru0.02O4,13.5
La1.805Sr0.195Cu0.98Ru0.02O4,14.1
La1.8Sr0.2Cu0.98Ru0.02O4,15.6
La1.795Sr0.205Cu0.98Ru0.02O4,15.5
La1.79Sr0.21Cu0.98Ru0.02O4,11.2
La1.79Sr0.21Cu0.97Ru0.03O4,14.8
La1.78Sr0.22Cu0.97Ru0.03O4,15.6
La1.76Sr0.24Cu0.97Ru0.03O4,16.1
La1.75Sr0.25Cu0.97Ru0.03O4,15.3
La1.73Sr0.27Cu0.97Ru0.03O4,14.1
Co1Sr2Y0.9Ca0.1Cu2O7+z,15.0
Co1Sr2Y0.8Ca0.2Cu2O7+z,20.0
Co1Sr2Y0.75Ca0.25Cu2O7+z,30.0
Co1Sr2Y0.7Ca0.3Cu2O7+z,40.0
Co1Sr2Y0.65Ca0.35Cu2O7+z,38.0
Co1Sr2Y0.6Ca0.4Cu2O7+z,34.0
Co1Sr2Y0.55Ca0.45Cu2O7+z,25.0
Co1Sr2Y0.5Ca0.5Cu2O7+z,15.0
La1.9Pr0.1Ca0.2Ba2Cu4.2O9.8786,25.5
La1.8Pr0.2Ca0.4Ba2Cu4.4O10.7348,35.4
La1.7Pr0.3Ca0.6Ba2Cu4.6O10.8862,47.6
La1.6Pr0.4Ca0.8Ba2Cu4.8O11.1064,54.0
La1.5Pr0.5Ca1Ba2Cu5O11.782,57.7
Sr1Ti1O3,0.58
Sr1Ti1O3,0.133
Sr1Ti1O3,0.214
Na0.31Co1D2.5O3.25,4.5
Sr2Ru1O4,1.42
Sr2Ru0.9995Ti0.0005O4,1.13
Sr2Ru0.999Ti0.001O4,0.6
Sr2Ru0.99875Ti0.00125O4,0.46
Ba1Sr1Y1Cu3O7+z,82.7
Fe0.1Ba1Sr1Y1Cu2.9O7+z,46.6
Fe0.2Ba1Sr1Y1Cu2.8O7+z,36.1
Fe0.3Ba1Sr1Y1Cu2.7O7+z,7.8
Fe0.5Ba2Y1Cu2.5O7+z,73.0
Fe0.5Sr2Y1Cu2.5O7+z,77.0
Fe0.5Ba1Sr1Y1Cu2.5O7.35,60.0
Mo1Sr2Y1Cu2O7+z,18.0
Mo1Sr2Y1Cu2O7+z,32.0
Eu1.4Ce0.6Ru1Sr2Cu2O10,40.0
Sr0.9Pr0.1Cu1O2,41.5
Sr0.9La0.1Cu1O2,41.9
Na0.3Co1H2.6O3.3,4.2
Na0.45Co1H2.6O3.3,2.0
Na0.4Co1H2.6O3.3,2.0
Na0.32Co1H2.6O3.3,2.1
Na0.33Co1H2.6O3.3,2.2
Na0.32Co1H2.6O3.3,3.0
Na0.3Co1H2.6O3.3,4.3
Na0.29Co1H2.6O3.3,4.0
Na0.26Co1H2.6O3.3,2.4
Hg2Ba1Sr1Y1Cu2O8-z,32.0
Hg2Sr2Y1Cu2O8-z,42.0
Hg2Ba2Y0.8Ca0.2Cu2O8-z,21.0
Hg2Ba1.9Sr0.1Y0.8Ca0.2Cu2O8-z,27.0
Hg2Ba1.8Sr0.2Y0.8Ca0.2Cu2O8-z,32.5
Hg2Ba1.7Sr0.3Y0.8Ca0.2Cu2O8-z,39.5
Hg2Ba1.6Sr0.4Y0.8Ca0.2Cu2O8-z,38.5
Hg2Ba1.5Sr0.5Y0.8Ca0.2Cu2O8-z,41.0
Hg2Ba1.2Sr0.8Y0.8Ca0.2Cu2O8-z,51.0
Hg2Ba0.6Sr1.4Y0.8Ca0.2Cu2O8-z,60.0
Hg2Sr2Y0.8Ca0.2Cu2O8-z,58.0
Sm1.85Ce0.15Cu1O4,18.6
Sm1.85Ce0.15Cu1O4,15.7
Bi0.8Nd0.1Tb0.1Pb1Sr2Ca2Cu3O10,115.0
Ru0.99Co0.01Sr2Gd1Cu2O8,25.5
Ru0.97Co0.03Sr2Gd1CuO8,13.0
Ru0.95Co0.05Sr2Gd1CuO8,5.5
Ba0.63K0.37Bi1O3,31.0
Y1Ba2Cu2.96Co0.04O7,91.5
Y1Ba2Cu2.94Co0.06O7,78.3
Y1Ba2Cu2.88Co0.12O7,71.0
Y1Ba2Cu2.76Co0.24O6.999,50.7
Y1Ba2Cu2.64Co0.36O7.03,22.0
Y1Ba2Cu2.961Co0.039O7+z,93.0
Pr1.885Ce0.115Cu1O4-z,13.0
Pr1.876Ce0.124Cu1O4-z,21.3
Pr1.873Ce0.127Cu1O4-z,23.1
Pr1.869Ce0.131Cu1O4-z,23.6
Pr1.867Ce0.133Cu1O4-z,23.3
Pr1.863Ce0.137Cu1O4-z,23.2
Pr1.856Ce0.144Cu1O4-z,21.2
Pr1.848Ce0.152Cu1O4-z,19.8
Pr1.85Ce0.15Cu1O4,15.9
La1.913Ce0.087Cu1O4-z,28.7
La1.888Ce0.112Cu1O4-z,29.3
La1.865Ce0.135Cu1O4-z,21.7
La1.875Ce0.125Cu1O4-z,22.5
La1.855Ce0.145Cu1O4-z,24.2
La1.844Ce0.156Cu1O4-z,21.5
Pr1.85Ce0.15Cu1O4,24.0
Nd1.85Ce0.15Cu1O4,19.0
Pr1.85Ce0.15Cu1O4,23.2
Pr1.85Ce0.15Cu1O4,24.2
Pr1.85Ce0.15Cu1O4,23.9
Pr1.85Ce0.15Cu1O4,23.3
Pr1.85Ce0.15Cu1O4,23.6
La1.87Ce0.13Cu1O4,23.5
La1.909Ce0.091Cu1O4,30.3
La1.89Ce0.11Cu1O4,29.75
La1.92Ce0.08Cu1O4,15.0
La1.91Ce0.09Cu1O4,18.2
La1.89Ce0.11Cu1O4,25.0
La1.87Ce0.13Cu1O4,20.0
La1.85Ce0.15Cu1O4,8.5
La1.84Ce0.16Cu1O4,3.0
Gd1Sr0.8Ba1.2Cu3Oz,84.0
Gd0.8Pr0.1Ca0.1Sr0.8Ba1.2Cu3Oz,69.8
Gd0.6Pr0.2Ca0.2Sr0.8Ba1.2Cu3Oz,44.9
Er1Sr0.8Ba1.2Cu3Oz,83.9
Er0.8Pr0.1Ca0.1Sr0.8Ba1.2Cu3Oz,78.0
Er0.6Pr0.2Ca0.2Sr0.8Ba1.2Cu3Oz,72.5
Sm1Ba2Cu3Oz,88.0
La2Cu1O4.086,45.2
La2Cu0.99Zn0.01O4.099,29.3
La2Cu0.98Zn0.02O4.099,19.2
La2Cu0.97Zn0.03O4.1,7.3
K1Os2O6,9.5
Nd1Sr1.5Ba0.5Cu2.85Mo0.15Oz,34.25
Nd1Sr1.5Ba0.5Cu2.7Mo0.3Oz,22.5
Nd1Sr1.65Ba0.35Cu2.8Mo0.2Oz,26.0
Nd1Sr1.5Ba0.5Cu2.8Mo0.2Oz,31.0
Ru1Sr2Eu1.5Ce0.5Cu2Oz,36.0
Ru0.75Nb0.25Sr2Eu1.5Ce0.5Cu2Oz,33.5
Ru0.5Nb0.5Sr2Eu1.5Ce0.5Cu2Oz,32.0
La1.64Eu0.2Sr0.16Cu1O4,10.0
Na0.35Co1H2.6O3.3,4.2
Na0.75Co1H2.6O3.3,4.61
Na0.75Co0.9995Ir0.0005H2.6O3.3,4.59
Na0.75Co0.995Ir0.005H2.6O3.3,3.94
Na0.75Co0.99Ir0.01H2.6O3.3,3.54
Na0.75Co1H2.6O3.3,4.49
Na0.75Co0.9995Ga0.0005H2.6O3.3,4.38
Na0.75Co0.999Ga0.001H2.6O3.3,4.19
Na0.75Co0.9975Ga0.0025H2.6O3.3,3.98
Na0.75Co0.995Ga0.005H2.6O3.3,2.99
Bi2Sr2.1Y0.1Ca0.8Cu2O8.26,96.0
Bi2Sr1.9Y0.1Ca1Cu2O8.24,94.0
Bi2Sr1.8Y0.1Ca1.1Cu2O8.23,93.0
Bi2Sr1.6Y0.1Ca1.3Cu2O8.23,89.0
K1Os2O6,9.8
Cs1Os2O6,3.3
Na0.22Co1H1.8O2.85,4.5
Na0.22Co1H1.8O2.85,4.4
Tb1Sr2Cu2.7Mo0.3O7.15,37.0
Tb1Sr2Cu2.7Mo0.3O7+z,80.0
La1.9Sr0.1Cu1O4,29.3
La1.9Sr0.1Cu0.9975Zn0.0025O4,23.71
La1.9Sr0.1Cu0.995Zn0.005O4,20.19
La1.9Sr0.1Cu0.9925Zn0.0075O4,15.23
La1.9Sr0.1Cu0.99Zn0.01O4,11.97
La1.885Sr0.115Cu1O4,27.57
La1.885Sr0.115Cu0.9975Zn0.0025O4,22.46
La1.885Sr0.115Cu0.995Zn0.005O4,17.64
La1.885Sr0.115Cu0.9925Zn0.0075O4,12.45
La1.885Sr0.115Cu0.99Zn0.01O4,8.56
La1.87Sr0.13Cu1O4,33.54
La1.87Sr0.13Cu0.9975Zn0.0025O4,28.92
La1.87Sr0.13Cu0.995Zn0.005O4,26.44
La1.87Sr0.13Cu0.9925Zn0.0075O4,21.02
La1.87Sr0.13Cu0.99Zn0.01O4,18.83
Rb1Os2O6,6.4
Na0.23W1O3,2.16
Rb0.27W1O3,1.9
Rb0.33W1O3,1.76
Rb0.33W1O3,2.89
Rb0.33W1O3,2.45
Na0.2W1O3,3.05
Ba1Pb0.9Bi0.1O3,2.91
Ba1Pb0.85Bi0.15O3,8.7
Ba1Pb0.8Bi0.2O3,10.25
Ba1Pb0.75Bi0.25O3,11.7
Ba1Pb0.7Bi0.3O3,11.23
Ba1Pb0.65Bi0.35O3,3.93
Li1Ti2O4,11.4
Na0.28Co1H2.6O3.3,4.21
Na0.29Co1H2.6O3.3,3.91
Na0.31Co1H2.6O3.3,4.81
Na0.24Co1H2.6O3.3,3.51
Na0.26Co1H2.6O3.3,2.71
Li1Ti2O4,11.7
Li1.05Ti1.95O4,12.0
Li1.1Ti1.9O4,9.6
Ca1La1Ba1Cu2.8P0.2O7,90.0
Y0.8Ca0.2Sr1Ba1Cu2.8B0.2O7,45.0
Ru1Sr2Gd1Cu2O8-z,16.0
Ru1Sr2Y1Cu2O8-z,45.0
Gd1.05Ba1.95Cu3O6.94,85.0
Gd1.15Ba1.85Cu3O6.99,48.0
Gd1.2Ba1.8Cu3O7.03,42.0
Gd1.25Ba1.75Cu3O6.98,28.0
Li1Ti2O4,12.9
Li1Ti2O4,12.4
Li1.04Ti1.96O4,12.1
Li1.08Ti1.92O4,11.8
Li1.12Ti1.88O4,10.4
Li1.16Ti1.84O4,8.3
Li0.98Mg0.02Ti2O4,11.9
La2Cu0.985V0.015O4.021,40.0
La2Cu0.975V0.025O4.032,40.0
La2Cu0.965V0.035O4.045,40.0
La2Cu0.955V0.045O4.056,40.0
Ba2Ca2Cu3F2O6,90.0
Ba2Ca3Cu4F2O8,70.0
Bi1Pb1Sr2Ca2Cu3O10,103.5
Bi0.9Nd0.05Tb0.05Pb1Sr2Ca2Cu3O10,111.0
Bi0.8Nd0.1Tb0.1Pb1Sr2Ca2Cu3O10,115.5
Bi0.6Nd0.2Tb0.2Pb1Sr2Ca2Cu3O10,107.5
Y1Ba2Cu2.9925Zn0.0075O6.92,88.0
Y1Ba2Cu2.985Zn0.015O6.95,86.0
Y1Ba2Cu2.9775Zn0.0225O6.93,83.0
Y1Ba2Cu2.97Zn0.03O6.98,80.0
Y1Ba2Cu2.94Zn0.06O6.96,71.0
Y1Ba2Cu2.88Zn0.12O6.95,64.0
Tl1Ba2Ca3Cu4Oz,128.0
Ti1Sr2Sm1.6Ce0.4Cu2O10-z,25.0
Ti1Sr2Eu1.6Ce0.4Cu2O10-z,20.0
Ca2Cu1Cl2.25O2,31.0
Ca2Cu1Cl2.3O2,36.0
Ca2Cu1Cl2.4O2,38.0
Ca2Cu1Cl2.5O2,38.0
Ca2Cu1Cl2.18O2,24.0
Ca2Cu1Cl2.2O2,30.0
Fe0.5Ba2Y1Cu2.5O7.41,80.0
Fe0.5Ba2Sm1Cu2.5O7.54,8.0
Fe0.5Ba2Eu1Cu2.5O7.51,60.0
Fe0.5Ba2Gd1Cu2.5O7.45,72.0
Fe0.5Ba2Dy1Cu2.5O7.52,75.0
Fe0.5Ba2Ho1Cu2.5O7.49,76.0
Fe0.5Ba2Er1Cu2.5O7.46,72.0
Fe0.5Ba2Tm1Cu2.5O7.43,60.0
Fe0.5Ba2Yb1Cu2.5O7.45,72.0
Ga0.65Cd0.4Sr2Y1Cu2O7+z,38.0
Ga0.65Cd0.5Sr2Y1Cu2O7+z,44.0
Ga0.65Cd0.6Sr2Y1Cu2O7+z,50.0
Ga0.65Sr2Y0.7Ca0.3Cu2O7+z,23.5
Ga0.95Cd0.05Sr2Y0.7Ca0.3Cu2O7+z,27.5
Ga0.9Cd0.1Sr2Y0.7Ca0.3Cu2O7+z,32.5
Ga0.85Cd0.15Sr2Y0.7Ca0.3Cu2O7+z,37.0
Ga0.8Cd0.2Sr2Y0.7Ca0.3Cu2O7+z,41.5
Ga0.75Cd0.25Sr2Y0.7Ca0.3Cu2O7+z,45.0
Ga0.7Cd0.3Sr2Y0.7Ca0.3Cu2O7+z,47.5
Ga0.65Cd0.35Sr2Y0.7Ca0.3Cu2O7+z,51.0
Ga0.6Cd0.4Sr2Y0.7Ca0.3Cu2O7+z,52.5
Ga0.5Cd0.5Sr2Y0.7Ca0.3Cu2O7+z,58.5
Ga0.4Cd0.6Sr2Y0.7Ca0.3Cu2O7+z,61.5
Ru1Sr2Gd1.4Ce0.6Cu2O9.54,34.0
Ru0.875Nb0.125Sr2Gd1.4Ce0.6Cu2Oz,34.0
Ru0.75Nb0.25Sr2Gd1.4Ce0.6Cu2Oz,29.5
Ru0.625Nb0.375Sr2Gd1.4Ce0.6Cu2Oz,29.5
Ru0.5Nb0.5Sr2Gd1.4Ce0.6Cu2O9.64,30.0
Ga1Sr2Tm0.75Ca0.25Cu2O7,28.0
Ga1Sr2Tm0.7Ca0.3Cu2O7,40.0
Ga1Sr2Tm0.65Ca0.35Cu2O7,47.0
Ga1Sr2Tm0.6Ca0.4Cu2O7,51.0
Ga1Sr2Y0.8Ca0.2Cu2O7,35.0
Ga1Sr2Y0.7Ca0.3Cu2O7,35.0
Ga1Sr2Y0.7Ca0.3Cu2O7,25.0
Ga1Sr2Y0.6Ca0.4Cu2O7,38.0
Ga1Sr2Y0.5Ca0.5Cu2O7,35.0
Ga0.9Sr2Y0.6Ca0.4Cu2.1O7,41.0
Ga0.8Sr2Y0.6Ca0.4Cu2.2O7,42.0
Fe1Sr2Y1Cu2O6+z,42.0
Fe1Sr2Y1Cu2O6+z,48.0
Fe1Sr2Y1Cu2O7.68,56.0
Y0.4Pr0.6Ba1.2Sr0.8Cu3O7,15.5
Y0.4Pr0.6Ba1Sr1Cu3O7,23.0
Y1Ba2Cu3O7-z,44.7
Y1Ba2Cu2.99Gd0.01O7-z,44.4
Y1Ba2Cu2.98Gd0.02O7-z,42.5
Y1Ba2Cu2.97Gd0.03O7-z,40.4
Y1Ba2Cu2.95Gd0.05O7-z,44.8
Y1Ba2Cu2.9Gd0.1O7-z,33.7
Y1Ba2Cu2.85Gd0.15O7-z,44.1
Hg0.75Ti0.25Sr2Gd1.5Ce0.5Cu2Oz,38.0
Hg0.75V0.25Sr2Gd1.5Ce0.5Cu2Oz,47.0
Hg0.75Mo0.25Sr2Gd1.5Ce0.5Cu2Oz,70.0
Hg0.75W0.25Sr2Gd1.5Ce0.5Cu2Oz,75.0
Hg0.75Re0.25Sr2Gd1.5Ce0.5Cu2Oz,50.0
Hg0.75W0.25Sr2Sm1.5Ce0.5Cu2Oz,56.0
Hg0.75W0.25Sr2Eu1.5Ce0.5Cu2Oz,65.0
Hg0.75W0.25Sr2Dy1.5Ce0.5Cu2Oz,71.0
Hg0.75W0.25Sr2Ho1.5Ce0.5Cu2Oz,64.0
Hg0.75W0.25Sr2Er1.5Ce0.5Cu2Oz,60.0
Hg0.7W0.3Sr2Ce2.01Eu0.99Cu2O11+z,26.0
Hg0.7W0.3Sr2Ce1.74Eu1.26Cu2O11+z,33.0
Hg0.7W0.3Sr2Ce1.5Eu1.5Cu2O11+z,45.0
Mo0.25Sr2Ce2.01Y0.99Cu2.75O11+z,12.1
Mo0.25Sr2Ce2.01Y0.99Cu2.75O11+z,33.4
Mo0.25Sr2Ce2.01Y0.99Cu2.75O11+z,50.9
Mo0.25Sr2Ce2.01Y0.99Cu2.75O11+z,51.7
Mo0.25Sr2Ce2.01Y0.99Cu2.75O11+z,52.9
Mo0.25Sr2Y1Cu2.75O7+z,87.6
Mo0.25Sr2Y1.5Ce0.5Cu2.75O9+z,35.2
Ag5Pb2O6,0.048
Bi2Sr2Ca1Cu2O8+z,87.0
Bi1.6Pb0.6Sr2Ca1Cu2O8+z,91.0
Bi1.2Pb0.8Sr2Ca1Cu2O8+z,93.0
K1Os2O6,9.62
Rb1Os2O6,6.29
Cs1Os2O6,3.26
Bi2Sr2Ca1Cu2O8+z,48.0
Bi2Sr2Ca1Cu2O8+z,86.0
Bi2Sr2Ca1Cu2O8+z,60.0
La1.78Sr0.22Cu1O4,27.4
La1.85Sr0.15Cu1O4,36.1
La1.89Sr0.11Cu1O4,29.3
La1.91Sr0.09Cu1O4,24.4
La1.925Sr0.075Cu1O4,15.6
La1.931Sr0.069Cu1O4,12.0
Gd1.1Ba1.9Cu3O7,93.0
Y0.8Ca0.2Ba2Cu3O6.84,82.0
Y0.8Ca0.2Ba2Cu3O6.78,84.2
Y0.8Ca0.2Ba2Cu3O6.59,67.3
Y0.8Ca0.2Ba2Cu3O6.51,62.6
Y0.8Ca0.2Ba2Cu3O6.49,61.0
Y0.8Ca0.2Ba2Cu3O6.41,32.4
Y0.8Ca0.2Ba2Cu3O6.32,25.8
Ca1.85Na0.15Cu1Br2O2,10.0
Ca1.825Na0.175Cu1Br2O2,10.5
Ca1.8Na0.2Cu1Br2O2,11.0
Ca1.75Na0.25Cu1Br2O2,18.0
Ca1.7Na0.3Cu1Br2O2,16.5
Ca1.65Na0.35Cu1Br2O2,18.0
Ca1.875Na0.125Cu1Br1Cl1O2,15.0
Ca1.85Na0.15Cu1Br1Cl1O2,19.0
Ca1.825Na0.175Cu1Br1Cl1O2,23.0
Ca1.8Na0.2Cu1Br1Cl1O2,19.0
Ca1.75Na0.25Cu1Br1Cl1O2,19.0
Ca1.7Na0.3Cu1Br1Cl1O2,23.5
Ca1.65Na0.35Cu1Br1Cl1O2,24.0
Ca1.9Na0.1Cu1Cl2O2,13.0
Ca1.875Na0.125Cu1Cl2O2,25.0
Ca1.85Na0.15Cu1Cl2O2,25.0
Ca1.825Na0.175Cu1Cl2O2,26.0
Ca1.8Na0.2Cu1Cl2O2,27.5
Ca1.75Na0.25Cu1Cl2O2,26.5
Ca1.7Na0.3Cu1Cl2O2,27.7
Ca1.65Na0.35Cu1Cl2O2,28.0
Cd2Re2O7,0.97
Bi1.4Pb0.6Sr2Ca1Cu2O8,91.0
Bi1.2Pb0.8Sr2Ca1Cu2O8,93.0
Sn1,3.809
Sn1,3.7452
Sn1,3.6657
Tl1,2.3917
Tl1,2.3861
Tl1,2.3956
In1,3.4178
Hg1,4.1596
Pb1,7.22
Sn1,3.8082
Sn1,3.7419
Sn1,3.7444
Hg1,4.173
Be22Mo1,2.51
Be22W1,4.12
Be22Tc1,5.21
Be22Re1,9.65
Mo1,0.902
Tc1,7.79
Tc1,8.035
Tc1,7.77
Tc1,7.71
Ga1,6.07
H0.965Pd1,6.45
D0.967Pd1,8.14
Mo0.18U0.82,2.115
Cd1,0.5173
Cd1,0.5218
Cd1,0.5148
Cd1,0.5115
C3La2,13.5
C3Y2,17.3
Y2C2.9B0.1,16.4
C3La2,11.1
La1.8Sr0.2Cu1O4,29.0
La1.76Sr0.24Cu1O4,14.2
La1.74Sr0.26Cu1O4,9.95
La1.72Sr0.28Cu1O4,4.98
La1.8Sr0.2Cu0.995Zn0.005O4,26.1
La1.8Sr0.2Cu0.99Zn0.01O4,11.0
La1.78Sr0.22Cu0.9975Zn0.0025O4,18.5
La1.78Sr0.22Cu0.995Zn0.005O4,9.88
Bi2Sr2Ca1Cu2O8+z,72.0
Bi2Sr2Ca0.9Y0.1Cu2O8+z,84.0
Bi2Sr2Ca0.8Y0.2Cu2O8+z,91.7
Bi2Sr2Ca0.75Y0.25Cu2O8+z,92.8
Bi2Sr2Ca0.7Y0.3Cu2O8+z,89.0
Bi2Sr2Ca0.6Y0.4Cu2O8+z,67.8
B2Mg1,38.0
Mg1B0.96C0.04,35.5
Mg1B0.9C0.1,30.0
Mg1B0.85C0.15,24.0
B2Mg1,38.73
Rb1Os2O6,6.32
Li2Pd3B1,7.5
Li2Pt3B1,2.17
Pu0.9U0.1Co1Ga5,8.4
U0.9Np0.1Co1Ga5,7.2
Pu1Co0.5Rh0.5Ga5,15.5
Pu1Co0.1Rh0.9Ga5,10.2
Pu1Rh1Ga5,8.9
Pu1Co0.9Fe0.1Ga5,13.5
Pu1Co0.8Fe0.2Ga5,10.0
Pu1Co0.9Ni0.1Ga5,16.6
Ba24Si100,1.4
Y1Ba2Cu4O8,80.05
B2Mg1,39.0
C2Na1,5.0
C3Na1,2.3
Ru1Sr2Gd1Cu2O8,47.5
Ag5Pb2O6,0.0524
Ag7N1O11,1.04
Ag7F1O8,0.3
Ag7B4F4O8,0.15
Sb2Yb1,1.3
C8.1K1,0.152
Si2Ta1,0.345
Pr1Ru4Sb12,0.97
Nb1Se2,7.1
K1Os2O6,9.6
Ce1Rh1Si3,0.9
Ce1Co1In5,2.27
Pu1Rh1Ga5,8.5
Pu1Co1Ga5,18.5
Ce1Pt3Si1,0.8
Ba24Si100,1.55
Ce1Rh1In5,2.2
Ce2Ni3Ge5,0.22
C2Y1,3.838
La0.6Rh4P12,17.0
Te3Zr1,2.95
Ce1Cu2Si2,0.73
Ce1Cu2Si2,0.61
Y1Ru4P12,8.5
Hg0.4Pr0.8Sr2.4Ca0.4Cu2O6+z,74.0
Hg0.4Pr1.1Sr2Ca0.5Cu2O7.9,76.0
Hg0.4Pr1.1Sr2Ca0.5Cu2O6.9,60.0
Hg0.5Bi0.5Sr2Ca0.65Nd0.35Cu2Oz,94.0
Hg0.5Bi0.5Sr2Ca0.65Y0.35Cu2Oz,93.0
Hg0.5Bi0.5Sr2Ca0.65Pr0.35Cu2Oz,95.0
Hg0.75Ti0.25Sr2Ca0.65Y0.35Cu2Oz,75.0
Hg0.4Pr0.6Sr2.7Pr0.3Cu2O6+z,85.0
Hg0.4Pr0.6Sr2.5Pr0.5Cu2O6+z,74.0
Ba6Ge25,0.24
La3Pd4Ge4,2.75
Zn2Zr1,0.6
B2Mg1,38.7
B12Zr1,6.0
Ca1.82Na0.18Cu1Cl2O2,27.0
Ce1Ni1Ge3,0.48
Cu0.5Tl0.5Ba2Ca2Cu3O10-z,108.0
Cu0.5Tl0.5Ba2Ca1.6Mg0.4Cu3O10-z,115.0
Cu0.5Tl0.5Ba2Ca1.2Mg0.8Cu3O10-z,117.0
Cu0.5Tl0.5Ba2Ca0.8Mg1.2Cu3O10-z,130.0
Cu0.5Tl0.5Ba2Ca1.9Pr0.1Cu3O10-z,110.5
Cu0.5Tl0.5Ba2Ca1.8Pr0.2Cu3O10-z,100.0
Cu0.5Tl0.5Ba2Ca1.6Pr0.4Cu3O10-z,80.0
Mg1.9Cu0.1B12,37.3
Mg1.8Cu0.2B12,36.5
Ca1.9Cu1Cl2O2,15.0
Ca1.85Cu1Cl2O2,30.0
Ca1.8Cu1Cl2O2,39.0
Ca1.8Cu1Cl2O2,43.0
Li1Ti2O4,12.1
C1,0.38
C1,2.5
C1,2.62
Mg1B1.95C0.05,34.0
Mg1B1.9C0.1,27.5
Mg1B1.9C0.1,34.2
Mg1B1.9C0.1,35.4
Ga0.5Co0.5Sr2Tm0.6Ca0.4Cu2Oz,35.0
Ga0.5Co0.5Sr2Tm0.5Ca0.5Cu2Oz,34.0
Ga0.4Co0.6Sr2Tm0.6Ca0.4Cu2Oz,30.0
Lu1Ni1B1C1,2.5
Lu1Ni1B0.9C1,2.6
Lu1Ni1B0.8C1,2.6
Lu1Ni1B0.9C1.1,2.9