composition,critical_temperature_tc
Bi2Sr2Ca0.95K0.05Cu2OZ,78.0
Bi2Sr2Ca0.9K0.1Cu2OZ,76.0
Bi2Sr2Ca0.8K0.2Cu2OZ,76.0
Bi2Sr2Ca0.7K0.3Cu2OZ,71.0
Bi2Sr2Ca0.6K0.4Cu2OZ,75.0
C60Rb3,28.6
C60K3,20.0
Ba0.6K0.4Bi0.9Pb0.1O3,21.5
Ba0.6K0.4Bi0.8Pb0.2O3,14.7
Ba0.7K0.3Bi0.7Pb0.3O3,14.6
Ba0.6K0.4Bi0.7Pb0.3O3,11.3
Ba0.9K0.1Bi0.4Pb0.6O3,11.3
Ba0.6K0.4Bi0.6Pb0.4O3,9.2
Ba0.9K0.1Bi0.3Pb0.7O3,9.3
Ba0.6K0.4Bi0.5Pb0.5O3,7.2
Ba0.8K0.2Bi0.3Pb0.7O3,7.2
Tl0.76Ba1Cu1O4.5,86.0
Zn1Tl0.78Ba1Cu1O4.5,81.0
Cd1Tl0.7Ba1Cu1O4.5,52.5
Hg0.76Tl0.76Ba1Cu1O4.5,87.5
Eu1Ba2Cu3O6.97,94.77
Eu0.95Pr0.05Ba2Cu3OZ,91.35
Eu0.9Pr0.1Ba2Cu3O6.95,79.45
Eu0.8Pr0.2Ba2Cu3O6.97,57.9
Eu0.7Pr0.3Ba2Cu3O6.95,38.8
Eu0.6Pr0.4Ba2Cu3O6.97,15.0
Pb0.5Sr1.8Ba0.2Y0.85Ca0.15Cu2.5O6.98,25.0
Y2Ba4Cu7O15.09,89.0
Y2Ba4Cu7O15.03,87.0
Y2Ba4Cu7O14.53,60.0
Y2Ba4Cu7O14.13,37.0
Bi1.8Pb0.2Sr2Ca2In0.05Cu3OZ,94.0
Bi1.8Pb0.2Sr2Ca2In0.1Cu3OZ,93.5
Bi1.8Pb0.2Sr2Ca2In0.2Cu3OZ,91.5
Bi1.8Pb0.2Sr2Ca2In0.25Cu3OZ,93.0
Bi1.8Pb0.2Sr2Ca2In0.3Cu3OZ,81.0
Bi1.8Pb0.2Sr2Ca2Cu3OZ,96.0
Bi1.8Pb0.2Sr2Ca2In0.4Cu3OZ,83.0
Bi1.8Pb0.2Sr2Ca2In0.6Cu3OZ,84.0
Bi1.8Pb0.2Sr2Ca2In1Cu3OZ,85.0
Bi1.8Pb0.2Sr2Ca2In2Cu3OZ,80.0
Sm1Ba2Cu3O6.95,90.0
Sm0.9Pr0.1Ba2Cu3O6.95,65.7
Sm0.8Pr0.2Ba2Cu3O6.95,38.3
Sm0.7Pr0.3Ba2Cu3O6.95,11.9
Tm1Ba2Cu3O6.95,89.0
Tm0.9Pr0.1Ba2Cu3O6.95,87.9
Tm0.8Pr0.2Ba2Cu3O6.95,77.9
Tm0.7Pr0.3Ba2Cu3O6.95,64.1
Tm0.6Pr0.4Ba2Cu3O6.95,50.3
Tm0.5Pr0.5Ba2Cu3O6.95,28.9
Gd1Ba2Cu3O6.95,90.0
Gd0.9Pr0.1Ba2Cu3O6.95,74.3
Gd0.8Pr0.2Ba2Cu3O6.95,53.1
Gd0.7Pr0.3Ba2Cu3O6.95,30.6
Gd0.6Pr0.4Ba2Cu3O6.95,11.2
Bi2Sr1.6La0.4Cu1O6.32,23.2
Bi2Sr1.6La0.4Cu1O6.29,30.6
Bi1.9Pb0.1Sr2Ca1Cu2O8+Z,88.3
Bi1.85Pb0.15Sr2Ca1Cu2O8+Z,90.9
Bi1.8Pb0.2Sr2Ca1Cu2O8+Z,91.9
Bi1.75Pb0.25Sr2Ca1Cu2O8+Z,90.8
Bi1.7Pb0.3Sr2Ca1Cu2O8+d,90.4
Bi1.65Pb0.35Sr2Ca1Cu2O8+Z,88.7
Bi1.7Pb0.3Sr2Ca1Cu2O0.23,75.75
Bi1.7Pb0.3Sr2Ca1Cu2O0.27,67.6
Y1Sr2Cu2.85Re0.15O7,53.0
Y1Sr2Cu2.8Re0.2O6.9,43.0
Y1Sr2Cu2.75Re0.25O7,37.0
Y1Sr2Cu2.7Re0.3O7.1,33.0
Y1Sr2Cu2.85Re0.15O7.1,73.0
Y1Sr2Cu2.8Re0.2O7.2,63.0
Y1Sr2Cu2.75Re0.25O7.3,49.0
Y1Sr2Cu2.7Re0.3O7.2,44.0
Y1Sr2Cu2.8W0.2O6.9,45.0
Y1Sr2Cu2.75W0.25O6.9,33.0
Y1Sr2Cu2.7W0.3O6.9,24.0
Y1Sr2Cu2.8W0.2O7.2,66.0
Y1Sr2Cu2.75W0.25O7.1,51.0
Y1Sr2Cu2.7W0.3O6.9,28.0
Y1Sr2Cu2.8Mo0.2O7,40.0
Y1Sr2Cu2.75Mo0.25O7.1,31.0
Y1Sr2Cu2.7Mo0.3O7.1,30.0
Y1Sr2Cu2.65Mo0.35O7.2,29.0
Y1Sr2Cu2.8Mo0.2O7.1,71.0
Y1Sr2Cu2.75Mo0.25O7.1,55.0
Y1Sr2Cu2.7Mo0.3O7.1,43.0
Y1Sr2Cu2.65Mo0.35O7.4,43.0
Y1Sr2Cu2.7Co0.3O6.7,27.0
Y1Sr2Cu2.65Ga0.35O6.6,17.0
Y1Sr2Cu2.65Ga0.35O6.7,21.0
Y1Sr2Cu2.8Ge0.2O,18.0
Y1Sr2Cu2.7Fe0.3O6.9,43.0
Y1Sr2Cu2.65Fe0.35O6.7,34.0
Y1Sr2Cu2.6Fe0.4O7,21.0
Y1Sr2Cu2.7Fe0.3O7.1,51.0
Y1Sr2Cu2.65Fe0.35O7.1,46.0
Y1Sr2Cu2.6Fe0.4O7,37.0
Y1Sr2Cu2.7Co0.3O6.5,13.0
Y1Sr2Cu2.8V0.2O6.5,16.0
Y1Sr2Cu2.7Ti0.3O6.7,26.0
Y1Sr2Cu2.675Ti0.325O6.6,21.0
Y1Sr2Cu2.65Ti0.35O6.8,21.0
Y1Sr2Cu2.7Ti0.3O7,58.0
Y1Sr2Cu2.675Ti0.325O7.1,56.0
Y1Sr2Cu2.65Ti0.35O7.1,53.0
Sr0.95La0.05Cu1O2.01,42.4
Sr0.9La0.1Cu1O1.96,42.5
Sr0.88La0.12Cu1O1.97,42.4
Dy1Ba1Sr1Cu3O6.94,80.0
Dy1Ba1Sr1Cu3O6.93,83.0
Ba0.62K0.38Bi1O3,29.5
Ba0.7K0.3Bi1O3,29.9
Ba0.65K0.35Bi1O3,29.2
Ba0.6K0.4Bi1O3,28.5
Ba0.575K0.425Bi1O3,27.3
Ba0.5K0.5Bi1O3,19.55
Nd1Ba2Cu3O6.86,78.6
Nd0.9Pr0.1Ba2Cu3OZ,48.9
Nd0.8Pr0.2Ba2Cu3OZ,28.6
Nd0.75Pr0.25Ba2Cu3O6.96,11.7
Lu0.5Pr0.5Ba2Cu3O6.75,40.1
Yb0.5Pr0.5Ba2Cu3O6.67,38.7
Tm0.5Pr0.5Ba2Cu3O6.64,36.0
Er0.5Pr0.5Ba2Cu3O6.82,34.4
Ho0.5Pr0.5Ba2Cu3O6.67,24.3
Y0.5Pr0.5Ba2Cu3O6.68,27.1
Dy0.5Pr0.5Ba2Cu3O6.85,19.0
Y1Sr2Cu2.6Ga0.4OZ,10.0
La2Cu1O4.03,32.0
La2Cu1O4.11,45.0
La1.75Sr0.25Cu1O4.07,37.0
La1.67Sr0.33Cu1O4,37.0
La1.99Sr0.01Cu1O4.13,40.0
La1.98Sr0.02Cu1O4.09,40.0
La1.97Sr0.03Cu1O4.06,39.0
La1.96Sr0.04Cu1O4.05,40.0
La1.85Sr0.15Cu1O4.05,39.0
Pb0.5Ca1Sr2Y0.5Cu2O6.93,30.0
Pb0.5Ca1Sr2Y0.5Cu2O6.95,50.0
Pb0.5Ca1Sr2Y0.5Cu2O6.97,55.0
Pb0.5Ca1Sr2Y0.5Cu2O7,62.0
La1.85Sr0.15Cu1O4+Z,37.5
La1.85Sr0.15Cu0.995Sn0.005O4+Z,28.0
La1.85Sr0.15Cu0.99Sn0.01O4+Z,15.8
La1.85Sr0.15Cu0.985Sn0.015O4+Z,5.2
Tl2Ba2Ca1Cu2O8,109.0
Tl2Ba2Ca3Cu4O12,120.0
Tl2Ba2Ca4Cu5O14,124.0
Tl2Ba2Ca5Cu6O16,120.0
Bi2Sr2Ca1Cu2O8+Z,88.0
Bi2Sr2Ca1Cu1.96Co0.04O8+Z,78.0
Bi2Sr2Ca1Cu1.92Co0.08O8+Z,68.0
Bi2Sr2Ca1Cu1.88Co0.12O8+Z,56.0
Bi2Sr2Ca1Cu1.84Co0.16O8+Z,45.0
Y1Sr2Cu2.8Mo0.2OZ,45.0
Tb1Sr2Cu2.7Mo0.3OZ,31.0
Bi8Sr6Ca6Cu9O33.964,80.0
Bi8Sr6Ca6Cu9O33.912,85.0
Bi8Sr6Ca6Cu9O33.85,72.5
Bi8Sr6Ca6Cu9O34,74.3
Bi8Sr8Ca4Cu9O34.16,94.2
Bi8Sr8Ca4Cu9O34.25,73.5
Bi8Sr7Ca5Cu9O34.13,72.5
Bi8Sr6Ca6Cu9O33+X,74.3
Bi8Sr5Ca7Cu9O34.94,74.4
Bi8Sr4Ca8Cu9O33+X,69.0
Nd2Cu1F0.3O3.7,26.0
Nd2Cu1F0.3O3.7,37.0
Nd2Cu1F0.3O3.7,28.0
Nd2Cu1F0.3O3.7,25.0
Ca1La1Ba1Cu3O7,80.0
Tl0.5Pb0.5Sr1.6Ca2.4Cu3O9,113.0
Tl0.5Pb0.5Sr1.6Ca2.4Cu3O9,117.0
Tl0.5Pb0.5Sr1.6Ca2.4Cu3O9,124.0
Bi2Sr2Ca1Cu2O8,87.0
Y1Sr1Ba1Cu2.7Co0.3O6+Z,22.0
Y0.9Ca0.1Sr1Ba1Cu2.7Co0.3O6+Z,40.0
Y0.8Ca0.2Sr1Ba1Cu2.7Co0.3O6+Z,58.0
Y1Ba2Cu3.975Fe0.025O8,64.6
Y1Ba2Cu3.987Fe0.013O8,70.3
Y1Ba2Cu3.925Fe0.075O8,44.2
La1.82Sr0.18Cu1O4,37.0
La1.82Sr0.18Cu1O3.994,34.0
La1.82Sr0.18Cu1O3.987,33.0
La1.82Sr0.18Cu1O3.972,28.0
La1.82Sr0.18Cu1O3.967,22.0
Yb1Ba1.8Sr0.2Cu4O8,80.0
Yb1Ba1.6Sr0.4Cu4O8,80.0
Yb1Ba1.4Sr0.6Cu4O8,80.0
Yb1Ba1.2Sr0.8Cu4O8,80.0
Yb0.9Ca0.1Ba1.8Sr0.2Cu4O8,87.0
Yb0.9Ca0.1Ba1.6Sr0.4Cu4O8,86.0
Yb0.9Ca0.1Ba1.4Sr0.6Cu4O8,85.0
Yb0.9Ca0.1Ba1.2Sr0.8Cu4O8,84.0
YbCa0.2Ba1.6Sr0.4Cu4O8,86.0
YbCa0.4Ba1.6Sr0.4Cu4O8,85.0
Y1Ba2Cu2.88Fe0.12O7,57.0
La1.9Ca1.1Cu2O6+Z,42.5
La1.85Ca1.15Cu2O6+Z,48.0
La1.82Ca1.18Cu2O6+Z,50.0
La1.75Ca1.25Cu2O6+Z,51.0
La1.9Sr0.1Ca1Cu2O6.03,43.0
La1.85Sr0.15Ca1Cu2O6.03,47.5
La1.8Sr0.2Ca1Cu2O6.03,51.0
La1.77Sr0.23Ca1Cu2O6.03,51.5
Y1Ba2Cu3O6.8,84.0
Bi2Sr1.6La0.4Cu1O6+Z,27.0
Y0.9Zn0.1Ba2Cu3O7,54.9
Y0.8Zn0.2Ba2Cu3O7,43.0
Y0.7Zn0.3Ba2Cu3O7,23.5
Y0.9Cd0.1Ba2Cu3O7,89.9
Y0.8Cd0.2Ba2Cu3O7,92.8
Y0.7Cd0.3Ba2Cu3O7,92.8
Y0.6Cd0.4Ba2Cu3O7,91.7
Y0.5Cd0.5Ba2Cu3O7,93.2
Y0.4Cd0.6Ba2Cu3O7,91.7
Y0.3Cd0.7Ba2Cu3O7,87.0
Y0.25Cd0.75Ba2Cu3O7,53.2
Bi1.6Pb0.3Sb0.1Sr2Ca2Cu3OZ,132.0
Bi1.5Pb0.4Sb0.1Sr2Ca2Cu3OZ,132.0
Y1Ba2Cu3O7,95.5
Y0.9Pr0.1Ba2Cu3O7,84.1
Y0.8Pr0.2Ba2Cu3O7,75.8
Y0.7Pr0.3Ba2Cu3O7,59.2
Y0.6Pr0.4Ba2Cu3O7,48.7
Y0.5Pr0.5Ba2Cu3O7,28.5
La1.8Sr0.2Cu1O4,32.5
Y1Ba2Cu3O7,88.9
Y1Ba2Cu3H0.2O7-Z,92.0
La1.88Ba0.12Cu1O4,12.0
Nd1.85Ce0.15Cu1O4,23.6
Pb0.3Bi1.7Sr2Ca3Cu4OZ,110.0
Nd1.85Th0.15Cu1O4-Z,16.0
Bi3Pb1Ca3Sr3Cu4OZ,105.0
Y1Ba2Cu3O6.9,89.6
La2Tl2Sr2Cu3O11,37.0
Pr2Tl2Sr2Cu3O11,43.0
Nd2Tl2Sr2Cu3O11,44.0
Y2Tl2Sr2Cu3O11,45.0
Eu1Ba2Cu3O7-Z,85.1
Y1Ba2Cu3OZ,90.6
Y0.9Na0.1Ba2Cu3OZ,90.2
Y0.8Na0.2Ba2Cu3OZ,89.5
Y0.7Na0.3Ba2Cu3OZ,81.8
Y0.6Na0.4Ba2Cu3OZ,52.8
Y0.5Na0.5Ba2Cu3OZ,41.3
Y1Ba2Cu2.88Co0.12O7-Z,84.0
Y0.7Gd0.3Ba2Cu3OZ,93.0
Y0.4Gd0.6Ba2Cu3OZ,93.0
Y0.2Gd0.8Ba2Cu3OZ,93.0
Gd1Ba2Cu3OZ,93.0
Gd1Ba2Cu3O7,78.0
Y1Ba2Cu3O6.6,80.5
Ca1Ba1La0.8Eu0.2Cu3O7-Z,69.0
Ca1Ba1La0.6Eu0.4Cu3O7-Z,65.0
Ca1Ba1La0.4Eu0.6Cu3O7-Z,62.0
Ca1Ba1Eu1Cu3O7-Z,53.0
Ca1Ba1Gd1Cu3O7-Z,49.0
Ca1Ba1La0.8Sm0.2Cu3O7-Z,71.0
Ca1Ba1La0.6Sm0.4Cu3O7-Z,68.0
Ca1Ba1La0.4Sm0.6Cu3O7-Z,64.0
Ca1Ba1La0.2Sm0.8Cu3O7-Z,56.0
Ca1Ba1Sm1Cu3O7-Z,39.0
Ca1Ba1La1Cu3O7-Z,72.0
Ca1Ba1La0.8Nd0.2Cu3O7-Z,71.0
Ca1Ba1La0.6Nd0.4Cu3O7-Z,67.0
Ca1Ba1La0.4Nd0.6Cu3O7-Z,63.0
Ca1Ba1La0.2Nd0.8Cu3O7-Z,57.0
Ca1Ba1Nd1Cu3O7-Z,46.0
Ca1Ba1Dy1Cu3O7-Z,65.0
Ca1Ba1Ho1Cu3O7-Z,57.0
Ca1Ba1Er1Cu3O7-Z,66.0
Ca1Ba1Tm1Cu3O7-Z,67.0
Y0.75Sc0.25Ba2Cu3O7-Z,87.0
Y0.5Sc0.5Ba2Cu3O7-Z,83.0
Y1Ba2Cu2.85Mn0.15O7-Z,91.1
Y1Ba2Cu2.7Mn0.3O7-Z,89.0
Y1Ba2Cu2.55Mn0.45O7-Z,86.0
Y1Ba2Cu2.4Mn0.6O7-Z,84.0
Y1Ba1.95Li0.05Cu3OZ,69.0
Y1Ba1.95Na0.05Cu3OZ,90.0
Y1Ba1.95K0.05Cu3OZ,83.0
Y1Ba1.95Cs0.05Cu3OZ,84.5
Tl1.7Sr3Ca0.7Cu4.3OZ,106.5
Ho1Ba2Cu3O6.9,91.5
Nd1Ba2Cu3O7.04,82.5
Nd1.1Ba1.9Cu3O7.05,65.5
Nd1.2Ba1.8Cu3O7.1,43.5
Nd1.3Ba1.7Cu3O7.14,32.0
Sm1Ba2Cu3O7.01,87.0
Sm1.1Ba1.9Cu3O7.05,78.5
Sm1.2Ba1.8Cu3O7.09,38.0
Eu1Ba2Cu3O7.01,90.0
Eu1.1Ba1.9Cu3O7.07,81.0
Eu1.2Ba1.8Cu3O7.18,42.0
Eu1.3Ba1.7Cu3O7.15,39.5
Eu1.4Ba1.6Cu3O7.16,28.0
La1.88Ba0.12Cu1O4,30.0
La1.9Ba0.1Cu1O4,30.0
La1.92Ba0.08Cu1O4,32.2
La1.8Ba0.2Cu1O4,32.5
La1.825Ba0.175Cu1O4,28.3
La1.855Ba0.145Cu1O4,30.0
Eu1Ba2Cu3OZ,90.0
Eu1Ba2Cu3OZ,55.0
C60Rb3,30.0
C60K3,18.7
Dy1Ba2Cu3O7,92.5
Gd1Ba2Cu3O7-Z,94.0
Y1Ba2Cu3O7-Z,92.1
La1.45Nd0.4Sr0.15Cu1O4,22.5
La1.82Nd0.03Sr0.15Cu1O4,34.2
Y1Ba2Cu3S1O6,89.0
Y1Ba2Cu3OZ,91.5
La1.85Sr0.15Cu1O4,36.7
Eu6Ba4Ce2Cu9OZ,20.0
Sm6Ba4Ce2Cu9OZ,12.0
Nd6Ba4Ce2Cu9OZ,27.0
Gd1Ba2Cu3OX,87.0
Bi1.6Pb0.4Sr2Ca2Cu3OZ,107.1
Bi1.6Pb0.4Sr2Ca2Cu3OZ,107.25
Bi1.6Pb0.4Sr2Ca2Cu3OZ,107.75
Bi1.6Pb0.4Sr2Ca2Cu3OZ,108.1
Bi1.6Pb0.4Sr2Ca3Cu4O10+Z,100.0
Tm1Ba2Cu3O7,90.0
Bi2Sr2Ca1Cu2OX,89.0
Nd1.85Ce0.15Cu1O4,22.0
Bi2Sr1.9La0.1Cu1O6.2,12.0
Bi2Sr1.8La0.2Cu1O6.3,18.0
Bi2Sr1.6La0.4Cu1O6.35,20.0
Bi2Sr1.5La0.5Cu1O6.38,21.0
Bi2Sr1.4La0.6Cu1O6.42,5.0
Pb2Bi2Sr2Ca2Cu3O8+Z,107.0
La1.9Sr0.1Cu1O4,24.25
La1.85Sr0.15Cu1O4,30.0
Nd1.85Ce0.15Cu1O4-Z,22.0
La1.85Sr0.15Cu0.98Ni0.02O4,18.5
Y1Ba2Cu3.96Co0.04O8,62.5
Y1Ba2Cu3.92Co0.08O8,50.6
Y1Ba2Cu4O8,76.9
Y1Ba2Cu3.96Fe0.04O8,64.6
Y1Ba2Cu3.92Fe0.08O8,50.4
La1.9Sr0.1Cu1O4,27.9
La1.8Sr0.2Cu1O4,29.5
Bi2.1Sr1.94Ca0.88Cu2.07O8+Z,90.0
Sm1.85Ce0.15Cu1O4-Z,19.0
Y1Ba2Cu3O7-Z,89.1
Y1Ba2Cu2.975Ni0.025O7-Z,86.5
Y1Ba2Cu2.95Ni0.05O7-Z,84.7
Y1Ba2Cu2.925Ni0.075O7-Z,82.1
Y1Ba2Cu2.9Ni0.1O7-Z,80.3
Y1Ba2Cu2.75Ni0.25O7-Z,73.8
Y1Ba2Cu2.5Ni0.5O7-Z,61.8
Gd1Ba2Cu3O7+Z,89.0
Gd1Ba2Cu2.925Fe0.075O7+Z,64.0
Gd1Ba2Cu2.85Fe0.15O7+Z,47.0
Gd1Ba2Cu2.775Fe0.225O7+Z,33.0
Gd1Ba2Cu2.7Fe0.3O7+Z,11.0
Bi4Sr3Ca3Cu4OY,75.6
Bi4Sr3Ca2.7Y0.3Cu4OY,81.7
Bi4Sr3Ca2.55Y0.45Cu4OY,85.8
Bi4Sr3Ca2.4Y0.6Cu4OY,79.7
Bi4Sr3Ca2.25Y0.75Cu4OY,89.8
Bi4Sr3Ca2.1Y0.9Cu4OY,66.2
Bi4Sr3Ca1.95Y1.05Cu4OY,25.6
Bi4Sr3Ca1.8Y1.2Cu4OY,0.3
Y2Ba1.5Ca0.5Cu3O8+Z,80.0
Y1Ba2Cu3Se0.25OZ,40.0
Y1Ba2Cu3Se0.5OZ,92.0
La1.9Sr0.1Cu1O4,31.0
La1.9Sr0.1Cu0.975Ni0.025O4,3.65
La1.9Sr0.1Cu0.97Ni0.03O4,3.65
Y0.87Pr0.13Ba2Cu3O7,78.35
Y0.7Pr0.3Ba2Cu3O7,55.67
Y0.5Pr0.5Ba2Cu3O7,23.36
La1.855Sr0.145Cu0.99Ni0.01O4,33.0
La1.855Sr0.145Cu0.99Zn0.01O4,24.7
La1.836Sr0.164Cu1O4,36.9
La1.836Sr0.164Cu0.99Ga0.01O4,26.9
Y1Ba2Cu3OZ,74.0
Y1Ba2Cu3OZ,60.0
La1.48Nd0.4Sr0.12Cu1O4,8.3
La1.4Nd0.4Sr0.2Cu1O4,21.7
Tl1Sr2Ca1Cu2OZ,35.0
Tl1Sr2Ca1Cu2F0.2OZ,40.0
Tl1Sr2Ca1Cu2F0.5OZ,50.0
Tl1Sr2Ca1Cu2F1OZ,50.0
Tl1Sr2Ca1Cu2F1.5OZ,50.0
La1.85Sr0.15Cu1O4,35.7
La1.85Sr0.15Cu0.99Ni0.01O4,30.1
La1.85Sr0.15Cu0.98Ni0.02O4,23.7
La1.85Sr0.15Cu0.97Ni0.03O4,16.3
La1.85Sr0.15Cu0.96Ni0.04O4,6.4
La1.78Sr0.22Cu0.99Ni0.01O4,21.3
La1.78Sr0.22Cu0.98Ni0.02O4,17.7
La1.78Sr0.22Cu0.97Ni0.03O4,14.0
La1.78Sr0.22Cu0.96Ni0.04O4,7.9
La1.78Sr0.22Cu0.95Ni0.05O4,4.1
La1.78Sr0.22Cu1O4,24.6
Bi2Sr2Ca0.8Ho0.2Cu2OZ,80.0
Y1Ba2Cu3O6.48,48.0
C60K3,19.5
C60Rb3,28.4
Bi2Sr2Ca0.9Dy0.1Cu2O8+Z,93.0
Bi2Sr2Ca0.8Dy0.2Cu2O8+Z,89.0
Bi2Sr2Ca0.7Dy0.3Cu2O8+Z,88.0
Bi1.5Pb0.52Sr1.63Ba0.29Ca2.04Cu3OZ,109.6
Tl0.5Cr0.5Sr2Cu1OZ,45.0
Bi1.6Pb0.3Sb0.1Sr2Ca2Cu3OZ,93.0
Bi1.6Pb0.3Sb0.1Sr2Ca2Cu3OZ,107.5
Nd1.85Ce0.15Cu1O4,19.2
Bi1.8Pb0.4Sr2Ca2.2Cu3OZ,107.5
Nd1.85Ce0.15Cu1O4.03,19.3
Bi2Sr2Ca1Cu2OZ,91.0
Bi2Sr2Ca2Cu3OZ,107.0
La1.95Sr0.05Cu1O4,9.0
La1.9Sr0.1Cu1O4,33.0
La1.96Sr0.04Cu1O4,9.5
Gd1Ba1.98Cu3.05O7,89.4
Dy1Ba1.97Cu3.06O7,87.1
Eu1Ba1.93Cu2.92O7,83.2
Y1Ba2.01Cu3.11O7,86.0
Er1Ba2.03Cu3.05O7,90.0
Y1Ba2Cu3O7,87.5
Y1Ba2Cu3O7-Z,90.6
Tl0.7Pb0.3Ca1Sr2Cu2O7,31.0
Tl0.5Pb0.5Ca1Sr2Cu2O7,84.5
Tl0.75Pb0.25Ca1Sr2Cu2O7,80.0
Bi2Sr2Ca1Cu2OY,90.0
Bi2.15Sr1.8Ca1Cu2O8.15,93.0
Bi2Sr2Ca1Cu2O8-Z,85.0
Bi2Sr2Ca1Cu2O8-Z,55.0
Y1Ba2Cu3O7,90.85
Y1Ba2Cu3O7,91.15
Y1Ba2Cu3O7,90.6
Bi1Sr1Ca1Cu1O1,105.0
Bi1Sr1Ca1Cu1O1,84.0
Y1Ba2Cu3O6.93,90.5
Nd1.85Ce0.15Cu1OX,20.0
Bi2Sr2Ca1Cu2OX,90.0
Bi2Pb0.4Sr2Ca2.5Cu3.5OZ,105.0
Nd1.85Ce0.15Cu1O4-Z,20.55
Tl2Ba2Ca2Cu3O10+Z,116.0
Bi4Ca3Sr3Cu4O16.32,80.0
Bi1Sr1Ca1Cu1O1,85.0
Bi1Sr1Ca1Cu1O1,110.0
La1.92Sr0.08Cu1O4-Z,12.0
La1.9Sr0.1Cu1O4-Z,18.0
La1.85Sr0.15Cu1O4-Z,30.0
Bi1.7Pb0.3Sr2Ca1Cu2OZ,96.0
Y1Ba2Cu3O7,50.0
Er1Ba2Cu3O7,90.0
La1.95Sr0.05Cu1O4,15.0
La1.91Sr0.09Cu1O4,30.0
Y1Ba2Cu3O7-Z,87.0
Y1Ba2Cu3O7-Z,80.0
Bi2Sr2Ca1Cu2OZ,84.0
Bi2Sr2Ca1Cu2O8+Z,90.0
Bi2Sr1.8Ca1.2Cu2OZ,80.0
Y1Ba2Cu3OZ,80.0
Y1Ba2Cu3O7-Z,83.0
Y1Ba2Cu3O7-Z,86.0
Ba0.625K0.375Bi1O3,27.5
Tl2Ba2Ca1Cu2O7,108.0
Bi2Sr2Ca2Cu3O10+Z,107.0
Y0.57Pr0.43Ba2Cu3O7,22.0
Bi2Pb1Sr2Ca2Cu4OZ,65.0
Ba1Pb0.78Bi0.22O3,10.3
Ba1Pb0.83Bi0.17O3,7.6
Bi2Sr2Ca1Cu2O8,81.7
Ba1Pb0.75Sb0.25O3-Z,2.3
Dy1Ba2Cu3O6.94,88.7
Dy1Ba1.8Sr0.2Cu3O6.89,84.2
Dy1Ba1.6Sr0.4Cu3O6.89,80.6
Dy1Ba1.4Sr0.6Cu3O6.91,85.2
Dy1Ba1.2Sr0.8Cu3O6.9,84.7
Dy1Ba1Sr1Cu3O6.89,79.5
Y1Sr1.55Ba0.45Cu2.5B0.5O7,16.0
Y1Sr1.4Ba0.6Cu2.5B0.5O7,24.0
Y1Sr1.2Ba0.8Cu2.5B0.5O7,35.0
Y1Sr1Ba1Cu2.5B0.5O7,44.0
Y1Sr0.8Ba1.2Cu2.5B0.5O7,51.0
Y1Sr0.6Ba1.4Cu2.5B0.5O7,47.0
Y1Sr0.4Ba1.6Cu2.5B0.5O7,35.0
Bi1.7Pb0.3Sr2Ca2Cu3OZ,112.0
Bi1.7Pb0.3Sr2Ca1.99Sm0.01Cu3OZ,111.0
Bi1.7Pb0.3Sr2Ca1.98Sm0.02Cu3OZ,110.0
Bi1.7Pb0.3Sr2Ca1.95Sm0.05Cu3OZ,88.0
Bi1.7Pb0.3Sr2Ca1.925Sm0.075Cu3OZ,86.0
Bi1.7Pb0.3Sr2Ca1.9Sm0.1Cu3OZ,85.0
Sm1.5Ce0.5Sr2Cu2Nb1O10,23.0
Eu1.5Ce0.5Sr2Cu2Nb1O10,23.0
Nd1.5Ce0.5Sr2Cu2Nb1O10,20.0
Bi2Sr1Ca2Cu2O8.229,76.4
Bi2Sr1.1Ca1.9Cu2O8.22,76.5
Bi2Sr1.2Ca1.8Cu2O8.199,76.5
Bi2Sr1.3Ca1.7Cu2O8.19,76.5
Bi2Sr1.4Ca1.6Cu2O8.2,81.1
Bi2Sr1.5Ca1.5Cu2O8.19,78.5
Bi2Sr1.6Ca1.4Cu2O8.16,77.6
Bi2Sr1.7Ca1.3Cu2O8.211,78.7
Bi2Sr1.8Ca1.2Cu2O8.211,73.7
Bi2Sr1.9Ca1.1Cu2O8.181,71.8
Bi2Sr2Ca1Cu2O8.212,73.0
Hg1Ba2Cu1O4+Z,64.5
Hg1Ba2Ca2Cu3O8+Z,132.5
Y0.76Ca0.24Ba2Cu2.94Co0.06O6.81,82.0
Y0.76Ca0.24Ba2Cu2.85Co0.15O6.8,86.0
Y0.76Ca0.24Ba2Cu2.76Co0.24O6.84,85.0
Y0.76Ca0.24Ba2Cu2.64Co0.36O6.96,66.0
Y0.76Ca0.34Ba2Cu2.55Co0.45O6.95,51.0
Y0.9Ca0.1Ba2Cu2.55Co0.45O7.02,18.0
Y0.85Ca0.15Ba2Cu2.55Co0.45O7.08,30.0
Y0.76Ca0.24Ba2Cu2.55Co0.45O6.93,51.0
Y0.7Ca0.3Ba2Cu2.55Co0.45O6.84,53.0
Y1Ba2Cu2.85Co0.15O6.92,71.0
Y0.95Ca0.05Ba2Cu2.85Co0.15O6.82,83.0
Y0.9Ca0.1Ba2Cu2.85Co0.15O6.91,84.0
Y0.85Ca0.15Ba2Cu2.85Co0.15O6.83,86.0
Y0.8Ca0.2Ba2Cu2.85Co0.15O6.84,86.0
Y0.88Ca0.12Ba2Cu2.88Co0.12O6.78,87.0
Y0.7Ca0.3Ba2Cu2.7Co0.3O6.93,84.0
Y0.64Ca0.36Ba2Cu2.64Co0.36O6.87,82.0
Y0.58Ca0.42Ba2Cu2.52Co0.48OZ,79.0
Bi2Sr2Ca1Cu2I1O8,58.0
Bi2Sr2Ca0.9Y0.1Cu2I1O8,67.0
Bi2Sr2Ca0.8Y0.2Cu2I1O8,75.0
Bi2Sr2Ca0.7Y0.3Cu2I1O8,79.0
Bi2Sr2Ca0.6Y0.4Cu2I1O8,66.0
Bi2Sr2Ca0.55Y0.45Cu2I1O8,55.0
Bi2Sr2Ca0.5Y0.5Cu2I1O8,31.0
Bi1.6Pb0.4Sr2Ca2Cu2.99Fe0.01OZ,103.25
Bi1.6Pb0.4Sr2Ca2Cu2.95Fe0.05OZ,93.75
Bi1.6Pb0.4Sr2Ca2Cu2.93Fe0.07OZ,89.35
Bi1.6Pb0.4Sr2Ca2Cu2.9Fe0.1OZ,94.2
Bi1.6Pb0.4Sr2Ca2Cu2.99Zn0.01OZ,98.5
Bi1.6Pb0.4Sr2Ca2Cu2.95Zn0.05OZ,97.1
Bi1.6Pb0.4Sr2Ca2Cu2.93Zn0.07OZ,93.05
Bi1.6Pb0.4Sr2Ca2Cu2.9Zn0.1OZ,91.65
Bi1.6Pb0.4Sr2Ca2Cu2.8Zn0.2OZ,92.0
Bi1.6Pb0.4Sr2Ca2Cu2.6Zn0.4OZ,85.95
Bi1.6Pb0.4Sr2Ca2Cu2.5Zn0.5OZ,64.65
Bi1.6Pb0.4Sr2Ca2Cu3OZ,105.3
Bi1.6Pb0.4Sr2Ca2Cu2.95Mn0.05OZ,103.8
Bi1.6Pb0.4Sr2Ca2Cu2.8Mn0.2OZ,101.7
Bi1.6Pb0.4Sr2Ca2Cu2.7Mn0.3OZ,97.6
Bi1.6Pb0.4Sr2Ca2Cu2.6Mn0.4OZ,86.35
Bi1.6Pb0.4Sr2Ca2Cu2.5Mn0.5OZ,95.5
Sr2.02Y1.4Ce0.55Cu2.59C0.41OZ,18.0
Pb2Sr2Y0.61Ca0.39Cu3O8,79.0
Pb2Sr2Y0.61Ca0.39Cu3O8,75.0
Pb2Sr2Y0.64Ca0.36Cu3O8,65.0
Y1Ba2Cu3FeO7-Z,92.0
Y1Ba2Cu2.96Fe0.04O7-Z,89.5
Y1Ba2Cu2.87Fe0.13O7-Z,73.5
Y1Ba2Cu2.85Zn0.15O6.95,39.2
Y1Ba2Cu2.775Zn0.225O6.93,25.0
Y1Ba2Cu3Br0.9O6.2,92.0
Y0.975Ca0.025Ba2Cu4O8,82.0
Y0.95Ca0.05Ba2Cu4O8,87.0
Y0.9Ca0.1Ba2Cu4O8,89.0
La1.25Ca0.3Ba1.45Cu3O7.11,67.1
La1.25Ca0.35Ba1.4Cu3O7.108,74.3
La1.25Ca0.4Ba1.35Cu3O7.141,77.8
La1.25Ca0.45Ba1.3Cu3O7.135,79.2
La1.25Ca0.5Ba1.25Cu3O7.137,79.2
La1.25Ba1.75Cu3O7.07,40.0
La1.25Ca0.05Ba1.7Cu3O7.03,38.6
La1.25Ca0.1Ba1.65Cu3O7.06,38.8
La1.25Ca0.15Ba1.6Cu3O7.052,45.6
La1.25Ca0.2Ba1.55Cu3O7.082,50.2
La1.25Ca0.25Ba1.5Cu3O7.087,62.9
La1.89Ca1.11Cu2OZ,13.0
La1.89Ca1.11Cu2OZ,40.0
Y1Ba1.97Cu2.55Au0.13OX,93.3
Tl2Ba2Ca2Cu3O10-Z,116.0
Y1Ba2Cu3O6.9,91.4
Yb1Sr2Cu2.7Mo0.3OZ,34.0
Tm1Sr2Cu2.7Mo0.3OZ,33.9
Er1Sr2Cu2.7Mo0.3OZ,35.1
Ho1Sr2Cu2.7Mo0.3OZ,34.1
Dy1Sr2Cu2.7Mo0.3OZ,31.9
Gd1Sr2Cu2.7Mo0.3OZ,31.1
Eu1Sr2Cu2.7Mo0.3OZ,27.1
Sm1Sr2Cu2.7Mo0.3OZ,31.5
Yb0.6Nd0.2Pr0.2Ba2Cu3O7-Z,70.3
Er0.5Eu0.2Pr0.3Ba2Cu3O7-Z,52.1
Yb0.4Nd0.4Pr0.2Ba2Cu3O7-Z,56.6
Er0.4Eu0.3Pr0.3Ba2Cu3O7-Z,47.8
Tl2Ba2Cu1O6,15.0
La0.8Eu0.2Ca1Ba1Cu3OZ,69.0
La0.6Eu0.4Ca1Ba1Cu3OZ,65.0
La0.4Eu0.6Ca1Ba1Cu3OZ,62.0
Eu1Ca1Ba1Cu3OZ,53.0
La0.8Sm0.2Ca1Ba1Cu3O7-Z,71.0
La0.6Sm0.4Ca1Ba1Cu3O7-Z,68.0
La0.4Sm0.6Ca1Ba1Cu3O7-Z,64.0
La0.2Sm0.8Ca1Ba1Cu3O7-Z,56.0
Sm1Ca1Ba1Cu3O7-Z,39.0
La1Ca1Ba1Cu3O7-Z,72.0
La0.8Nd0.2Ca1Ba1Cu3O7-Z,71.0
La0.6Nd0.4Ca1Ba1Cu3O7-Z,67.0
La0.4Nd0.6Ca1Ba1Cu3O7-Z,63.0
La0.2Nd0.8Ca1Ba1Cu3O7-Z,57.0
Nd1Ca1Ba1Cu3O7-Z,46.0
La2Cu1O4.09,32.0
Y1Ba2Cu3FOZ,92.0
Y0.475Ca0.475Sr2.05Cu2.4C0.6OZ,63.0
Ga0.5Sr1.5Eu2Ce0.5Cu2.5OZ,25.0
Y1Ba2Cu4O8,81.5
Y0.9Ce0.1Ba2Cu4O8,56.5
Dy1Ba2Cu4O8,76.0
Dy0.9Ce0.1Ba2Cu4O8,44.0
Lu0.9Pr0.1Ba2Cu3O2,85.0
Ba0.65K0.35Bi1O2.99,18.7
Ba0.59K0.41Bi1O2.96,20.4
Ba0.52K0.48Bi1O2.93,20.6
Ba0.48K0.52Bi1O2.9,21.1
Ba0.45K0.55Bi1O2.83,18.95
Bi1.9Pb0.1Sr2Ca1Cu2O8.2,73.5
Bi2Sr2Ca1Cu2O8.2,85.2
Bi2Sr2Ca0.9Y0.1Cu2O8.2,89.0
Bi2Sr2Ca0.8Y0.2Cu2O8.2,87.8
Dy1Ba1Sr1Cu3O6.94,83.0
Y1Ba1Sr1Cu3O6.94,79.0
Ho1Ba1Sr1Cu3O6.94,79.0
Er1Ba1Sr1Cu3O6.94,78.0
Tm1Ba1Sr1Cu3O6.94,70.0
Lu1Ba1Sr1Cu3O6.94,54.0
La1Ba1Sr1Cu3O6.94,57.0
Nd1Ba1Sr1Cu3O6.94,74.0
Sm1Ba1Sr1Cu3O6.94,80.0
Eu1Ba1Sr1Cu3O6.94,80.0
Gd1Ba1Sr1Cu3O6.94,86.0
Bi1.9Pr0.1Sr2Ca2Cu3OZ,97.0
Bi1.9In0.1Sr2Ca2Cu3OZ,95.5
Bi1.9Sb0.1Sr2Ca2Cu3OZ,99.0
Bi1.9Pb0.1Sr2Ca2Cu3OZ,106.5
Bi1.9Sn0.1Sr2Ca2Cu3OZ,109.5
Bi1.9Ge0.1Sr2Ca2Cu3OZ,100.25
Tl2Ba2Ca3Cu4O12,109.0
Tl1.4Ba2Ca3Cu4O11.4,118.0
Gd1Ba2Cu3O7-Z,92.0
Sm1Ba2Cu3O7-Z,86.0
Nd1Ba2Cu3O7-Z,92.0
La1.875Sr0.125Cu1O4,32.4
La1.83Sr0.17Cu1O4,35.1
La1.8Sr0.2Cu1O4,29.8
Y1Ba2Cu3O6.45,47.0
Y1Ba2Cu2.82Fe0.18O6.95,75.6
Y1Ba2Cu2.82Fe0.18O6.895,87.7
Y1Ba2Cu2.94Fe0.06O6.89,87.5
Y1Ba2Cu2.94Fe0.06O6.954,76.6
Bi2.19Sr2Ca0.81Cu1.93OZ,89.0
Bi2.01Sr1.93Ca0.79Y0.24Cu1.94OZ,85.0
Bi2.02Sr1.81Ca0.74Y0.37Cu1.93OZ,80.0
La1.9Sr0.1Cu1O4,28.0
La1.875Sr0.125Cu1O4,32.0
La1.83Sr0.17Cu1O4,34.0
Y1Ba2Cu3O7-Z,87.3
Y1Ba2Cu3O7-Z,89.4
Eu2.17Ce0.5Sr1.33Cu2.5Fe0.5O9.23,25.7
Eu2.17Ce0.5Sr1.33Cu2.5Co0.5O9.08,34.9
Eu2.17Ce0.5Sr1.33Cu2.5Al0.5O9.02,16.4
Gd0.71Sm1.14Ce0.15Cu1O4,0.01
Gd0.51Sm1.34Ce0.15Cu1O4,10.9
Gd0.31Sm1.54Ce0.15Cu1O4,14.2
Gd0.11Sm1.74Ce0.15Cu1O4,17.8
Gd0.05Sm1.8Ce0.15Cu1O4,19.1
Sm1.85Ce0.15Cu1O4,20.0
Gd0.9Pr0.95Ce0.15Cu1O4,0.001
Gd0.71Pr1.14Ce0.15Cu1O4,8.1
Gd0.51Pr1.34Ce0.15Cu1O1,12.1
Gd0.32Pr1.53Ce0.15Cu1O4,13.6
Gd0.12Pr1.73Ce0.15Cu1O4,15.8
Gd0.07Pr1.78Ce0.15Cu1O4,17.4
Gd0.02Pr1.83Ce0.15Cu1O4,18.5
Bi2Sr2Ca2Cu3O10,106.5
Y0.85Pr0.15Ba2Cu3O7-z,80.0
Ca1Ba1La1Cu3O6.85,76.0
Ca0.95Ce0.05Ba1La1Cu3O6.91,64.8
Ca0.9Ce0.1Ba1La1Cu3O7.02,60.5
Ca0.85Ce0.15Ba1La1Cu3O7.07,52.4
Ca0.9Nd0.1Ba1La1Cu3O6.87,73.8
Ca0.8Nd0.2Ba1La1Cu3O6.99,73.8
Ca0.7Nd0.3Ba1La1Cu3O7.04,73.8
Ca0.6Nd0.4Ba1La1Cu3O7.1,48.6
Ca0.5Nd0.5Ba1La1Cu3O7.17,41.4
Ca0.4Nd0.6Ba1La1Cu3O7.19,21.9
Ca0.3Nd0.7Ba1La1Cu3O7.24,14.3
Y1Ba2Cu4O8,79.0
Y1Ba2Cu3O7-z,90.0
Bi1.7Pb0.3Sr2Ca2Cu3O10+z,105.0
Sr2Y1.2Ce1.2Cu2.6Oz,40.0
Dy2Ba4Cu7O14.61,29.0
Nd2Ba4Cu7O15.38,35.0
Ba1Ca0.26Cd0.74La1Cu3Oz,7.6
Ba1Ca0.3Cd0.7La1Cu3Oz,13.2
Ba1Ca0.4Cd0.6La1Cu3Oz,24.0
Ba1Ca0.5Cd0.5La1Cu3Oz,34.1
Ba1Ca0.6Cd0.4La1Cu3Oz,45.3
Hg1Ba2Ca2Cu3O8,133.0
Hg1Ba2Ca2Cu3O8,132.0
Nd0.5Ca0.5Ba2Cu2HgO6+z,110.0
Nd0.6Ca0.4Ba2Cu2.2Hg0.8O6+z,108.0
Hg1Ba2Ca1Cu2O6+z,128.0
Hg1Ba2Ca1Cu2O6+z,92.0
Nd1.85Ce0.15Cu1O3.98,19.0
Nd1.84Ce0.16Cu1O4,21.75
Tl0.6Pb0.2Bi0.2Sr1.8Ba0.2Ca2Cu3O9,122.0
Y0.92Ca0.08Sr2Cu2.5Fe0.5O6.92,8.0
Y0.9Ca0.1Sr2Cu2.5Fe0.5O6.9,20.0
Y0.88Ca0.12Sr2Cu2.5Fe0.5O6.89,19.0
Ba2Ca2Cu3O8+z,75.0
Ba2Ca3Cu5O10+z,80.0
Ba2Ca4Cu6O12+z,95.0
Ba2Ca5Cu7O14+z,120.0
Hg1Ba2Ca2Cu3O8+z,134.5
Pb0.7Hg0.3Sr2Nd0.3Ca0.7Cu2O6.6,90.0
Pb0.7Hg0.3Sr4Cu2C1O10,68.0
Y1Ba2Cu3O6.9,89.8
Y1Ba2Cu3O7,90.25
Y1Ba2Cu3O6.8,89.1
Y1Ba2Cu3O7-z,92.0
Y1Ba2Cu2.98Fe0.02O7-z,93.4
Y1Ba2Cu2.96Fe0.04O7-z,90.5
Y1Ba2Cu2.88Fe0.12O7-z,75.0
Y1Ba2Cu2.8Fe0.2O7-z,64.0
Yb1Ba2Cu2.98Zn0.02O7-z,83.3
Er1Ba2Cu2.98Zn0.02O7-z,85.5
Y1Ba2Cu2.98Zn0.02O7-z,84.7
Dy1Ba2Cu2.98Zn0.02O7-z,84.8
Gd1Ba2Cu2.98Zn0.02O7-z,86.0
Eu1Ba2Cu2.98Zn0.02O7-z,86.0
Sm1Ba2Cu2.98Zn0.02O7-z,86.3
Nd1Ba2Cu2.98Zn0.02O7-z,85.5
Bi0.33Hg0.67Sr2Y1Cu2O7,74.0
Bi0.33Hg0.67Sr2Y0.5Ca0.5Cu2O7,92.0
Hg1Ba2Sr2Cu2C1O9+z,58.0
Hg1Ba2Sr2Cu2C1O9+z,66.0
Hg1Ba2Cu1O4+z,75.0
Hg1Ba2Cu1O4+z,97.0
Eu1.6Sr1.8Ce0.6Cu3O8.6,30.0
Sm1.6Sr1.7Ce0.7Cu3O8+z,36.0
Hg1Ba2Ca2Cu3O8+z,135.0
Bi0.35In0.65Sr2Gd0.6Ca0.4Cu2Oz,30.0
Bi0.35In0.65Sr2Gd0.5Ca0.5Cu2Oz,36.0
Y1Ba2Cu3O6.7,77.0
Y1Ba2Cu3O6.45,49.0
Y1Ba2Cu3O6.4,34.0
Y1Ba2Cu3O6.35,15.0
Y0.9Pr0.1Ba2Cu4O8,75.0
Y0.8Pr0.2Ba2Cu4O8,68.0
Y0.7Pr0.3Ba2Cu4O8,61.0
Y0.6Pr0.4Ba2Cu4O8,58.0
Y0.5Pr0.5Ba2Cu4O8,49.0
Y0.4Pr0.6Ba2Cu4O8,39.0
Y0.3Pr0.7Ba2Cu4O8,23.0
Lu0.8Ce0.1Ca0.1Ba2Cu3O7-z,73.0
Lu0.75Ce0.15Ca0.1Ba2Cu3O7-z,70.0
Lu0.7Ce0.15Ca0.15Ba2Cu3O7-z,66.0
Lu0.9Ce0.1Ba2Cu3O7-z,60.0
Lu0.93Pr0.07Ba2Cu3O7-z,78.0
Lu0.9Pr0.1Ba2Cu3O7-z,86.0
Lu0.8Pr0.1Ca0.1Ba2Cu3O7-z,78.0
Lu0.85Pr0.15Ba2Cu3O7-z,82.5
Lu0.8Pr0.2Ba2Cu3O7-z,80.0
Lu0.7Pr0.2Ca0.1Ba2Cu3O7-z,74.0
Lu0.7Pr0.3Ba2Cu3O7-z,71.0
Lu0.6Pr0.3Ca0.1Ba2Cu3O7-z,60.5
Lu0.6Pr0.4Ba2Cu3O7-z,49.0