composition,critical_temperature_tc
Al0.04Au0.92In0.04,0.0555
Al0.03Au0.92In0.05,0.045
Al0.02Au0.92In0.06,0.034
Al0.01Au0.92In0.07,0.0278
Au0.92In0.08,0.022
Au0.92Ga0.08,0.168
Au0.92Ga0.068In0.012,0.137
Au0.92Ga0.06In0.02,0.13
Au0.92Ga0.04In0.04,0.0682
Au0.92Ga0.02In0.06,0.0425
Al0.02Au0.92Ga0.06,0.158
Al0.04Au0.92Ga0.04,0.101
Al0.06Au0.92Ga0.02,0.09
As1Ga1,4.5
Er1Pb2,7.4
Cu1S1,1.52
Cu6La1,0.042
Cu6Th1,0.2
Cd99.995Mn0.005,0.39
Cu0.7Nb0.3,9.39
Cu0.7In0.01Nb0.29,9.04
Cu0.7Nb0.29Ta0.01,9.25
As1Ga1,3.0
Be13U1,0.88
Be13U1,0.85
Co3Y4,2.5
Co7Y9,2.7
Ce0.01Y0.99,1.6
Be13U1,0.86
Be13U0.9934Th0.0066,0.67
Be13U0.9899Th0.0101,0.65
Be13U0.9807Th0.0193,0.48
Be13U0.9755Th0.0245,0.59
Be13U0.9645Th0.0355,0.55
Bi1In2,5.766
Bi3In5,4.227
B6Y6,7.5
Cr3Ir1,0.15
Cr3Rh1,0.07
Pd1V3,0.08
Zr1,0.92
Zr0.8Mo0.2,5.18
Zr0.8Mo0.2,4.1
Zr0.9Mo0.1,4.92
Zr0.9Mo0.1,3.68
Zr1,3.5
Zr0.87Ge0.13,2.94
Zr0.75Pd0.25,3.0
Zr0.8Ni0.2,3.59
V2Zr1,8.0
V2Zr1,7.7
Th0.95Zr0.05,0.69
Th0.3Zr0.7,2.7
Th0.05Zr0.95,0.73
Th0.25Zr0.75,6.29
Th0.2Zr0.8,3.3
Th0.1Zr0.9,2.58
Tc0.97Ti0.03,10.56
Tc0.875Ti0.125,8.7
Tc0.75Ti0.25,5.1
Tc0.25Ti0.75,2.7
Ti0.85V0.15,1.95
Ti0.8V0.2,4.1
Ti0.7V0.3,6.25
Ti0.6V0.4,6.95
Ti0.5V0.5,7.1
Ti0.4V0.6,7.3
Ti0.2V0.8,7.15
Ti0.1V0.9,5.75
Si0.108Zr0.892,3.54
Si0.132Zr0.868,3.21
Ta2Zr1,2.3
Ta1V2,3.6
Ta1V2,2.8
Ta0.455Zr0.545,7.7
Ta0.745Zr0.255,7.1
Se3Ta1,2.1
Re0.8V0.2,5.2
Re0.8V0.2,7.2
Ru2Zr1,1.92
Hf1Os2,1.85
Os2Zr1,2.9
Pd9Se2,0.7
Pd7Se2,0.53
Pd34Se11,2.66
Pd0.7Se0.3,2.04
Pd9Se2,0.64
Re2Si1,3.8
Se1Y1,4.0
Mo0.15Ti0.85,4.08
Pd0.15Ti0.85,3.82
Rh0.25Zr0.75,4.3
Rh0.25Zr0.75,3.97
Pd0.15Zr0.85,4.8
Mo0.07Zr0.93,4.91
Mo0.04Zr0.96,4.47
Hf0.906Mo0.094,2.71
Hf0.25Zr0.75,6.62
Al2Si2U1,1.34
Al2Ge2U1,1.6
Ga2Ge2U1,0.87
Ru3U1,0.145
Se3Ta1,1.9
S2Ta1,2.3
Se3Ta1,2.3
Re2Th1,5.0
Hf1Re2,5.2
Re2Zr1,6.4
Nb1S0.899,3.83
Nb1S1.06,3.3
S1.005Sc1,5.37
Si1V3,16.9
Nb0.15Zr0.85,6.5
Re0.71V0.29,8.4
Ir0.37V0.67,1.71
Pt0.25V0.75,3.2
Mo0.6Re0.4,12.0
Mo0.4Re0.6,6.0
Re0.35W0.65,6.75
Mo0.18Tc0.82,13.7
Pd0.07Ti0.93,3.26
Pd0.1Ti0.9,3.67
Pd0.14Ti0.86,3.74
Pd0.19Ti0.81,3.08
Pd0.24Ti0.76,2.0
Pd0.26Ti0.74,1.66
Pd0.05Ti0.95,4.64
Pd0.074Ti0.926,4.85
Pd0.1Ti0.9,5.0
Pd0.15Ti0.85,4.82
Pd0.18Ti0.82,4.73
Pd0.2Ti0.8,4.71
Hf0.93Mo0.07,2.11
Hf0.87Mo0.13,2.6
Hf0.8Mo0.2,2.89
Si1V3,16.84
Si1V3,16.98
Nb3Se4,1.85
Nb3Si1,18.0
Nb3Si1,9.0
M0.5Ta1S2,3.96
Nb3Si1,18.6
Nb3Si1,17.5
Nb3Sn1,17.2
Nb1Se2,7.11
Nb0.9Pd0.1,3.34
Nb0.85Pd0.15,2.26
Nb0.83Pd0.17,2.2
Nb0.8Pd0.2,1.98
Nb0.76Pd0.24,1.9
Nb0.72Pd0.28,1.89
Nb0.69Pd0.31,1.84
Nb0.65Pd0.35,1.84
Mo0.1Nb0.765Pd0.135,1.53
Mo0.1Nb0.72Pd0.18,1.45
Mo0.15Nb0.68Pd0.17,1.22
Mo0.2Nb0.64Pd0.16,0.94
Mo0.2Nb0.608Pd0.192,1.34
Nb0.72Pd0.18W0.1,1.5
H0.64Nb0.85Pd0.15,4.3
H0.75Nb0.85Pd0.15,4.66
H0.63Nb0.87Pd0.17,3.89
H0.12Nb0.8Pd0.2,1.52
H0.51Nb0.8Pd0.2,3.4
H0.6Nb0.8Pd0.2,3.46
H0.69Nb0.8Pd0.2,3.56
H0.74Nb0.8Pd0.2,4.07
H0.61Nb0.76Pd0.24,3.38
H0.34Nb0.72Pd0.28,1.64
H0.59Nb0.72Pd0.28,3.12
H0.46Nb0.69Pd0.31,3.05
H0.54Nb0.65Pd0.35,1.67
H0.51Mo0.1Nb0.765Pd0.135,5.46
H0.37Mo0.1Nb0.72Pd0.18,4.44
H0.46Mo0.1Nb0.72Pd0.18,4.82
H0.28Mo0.15Nb0.68Pd0.17,4.92
H0.47Nb0.72Pd0.18W0.1,3.48
C0.002N0.937Ta1,8.91
C0.198N0.747Ta1,10.74
C0.148N0.638Ta1,12.01
C0.017N0.632Ta1,11.84
C0.571N0.271Ta1,10.92
C0.97Ta1,11.84
Te3Zr1,4.0
S1N1,0.205
S1N1,0.235
S1N1,0.26
V1N1,9.25
V1N1,8.65
Mo1N1,15.1
Mo1N1,3.2
Fe1U6,3.86
Co1U6,2.43
Mn1U6,2.88
Lu3Si5,7.0
Li1Ti2O4,11.9
Li1.035Ti1.965O4,11.75
Li1.07Ti1.93O4,11.7
Li1.1Ti1.9O4,10.25
Ge2La1,2.2
La2Sn5,5.4
La1Sn2,3.6
La0.92Lu0.08,3.72
La0.8Y0.2,2.7
La0.84Pr0.16,2.2
La0.93Yb0.07,3.56
La0.98Nd0.02,3.6
Al1La3,6.0
Al1Ce0.01La3,3.92
Al1Ce0.0165La3,1.45
Al1Ce0.017La3,0.77
Al1Gd0.001La3,5.6
Al1Gd0.003La3,4.58
Al1Gd0.0065La3,2.79
La1Sn3,5.98
La1Sn3,6.628
Al2La1,3.273
La1Sn3,6.43
La0.9837Ce0.0163Sn3,4.33
La0.9647Ce0.0333Sn3,3.03
La0.9462Ce0.0538Sn3,1.86
La0.9709Ce0.0291Sn3,3.47
La0.9481Ce0.0519Sn3,1.92
Li1Ti2O4,12.7
Li1Ti2O4,10.7
Li1Ti2O4,11.5
Mo0.6Re0.4,12.3
N1Nb1,16.5
Mo6S8,2.0
Mo6Se8,6.4
Mo3Os1,12.7
Mo0.15Nb0.85,5.85
Mo0.8Nb0.2,0.095
La7Ni3,2.1
La1Os2,5.9
La1Os2,9.0
La3S4,8.05
La3S4,8.12
La3Se4,7.63
La3Te4,4.61
La1Sb2,0.4
La1N1,1.0
As3La4,6.5
La4Sb3,0.25
Bi1.5La4Sb1.5,0.158
Bi3La4,0.155
La3Sb3Y1,0.13
Bi2La4Pb1,2.3
Bi1.5La4Pb1.5,2.4
Bi1La4Pb2,2.5
Bi3La5,0.64
La2Sb1,0.75
Bi1La2,0.76
La3Ru1,5.55
La5Ru2,2.35
La7Ru3,1.75
Ga1La3,5.8
In1La3,9.7
La3Sn1,6.2
Al1La3,5.8
Ge1La3,3.7
La3Ni1,6.2
La3Ru1,4.2
Co1La3,4.0
Gd0.02In1La2.98,7.9
Gd0.06In1La2.94,4.1
La3Ni1,2.2
Co1La3,4.4
Hg0.5In0.5,3.81
Hg0.333In0.667,4.115
Ir0.42Nb0.58,4.2
Ir0.4Nb0.55O0.05,10.5
Ir0.455Nb0.455O0.09,9.2
C0.03Rh0.43Ta0.54,10.0
Ir0.42Ta0.58,6.6
Ge1P1,4.2
Ge1U7,1.4
Ge3U5,0.99
Ge1Nb3,4.8
Si1V3,16.0
Ge1H0.005V3,5.8
Ge1Mo3,4.25
Ge1Mo3,1.45
Ge3Mo5,3.3
H0.995Pd1,9.275
Ge1V3,8.6
Nb3Si1,8.6
Ge1V3,6.0
Si1V3,16.6
H15Th4,7.6
Ge2Zr1,8.0
Ge2Hf1,2.2
Ga6Tb1,5.0
Dy1Ga6,5.9
Ga26.5V73.5,13.6
Ga25V75,15.3
Ga20.5V79.5,9.7
Ga22.2V77.8,12.3
Ga23.6V76.4,14.6
Ga24.8V75.2,15.1
Ga25.3V74.7,14.9
Ga28.1V71.9,12.2
Ga29.6V70.4,12.1
Ga1V3,15.2
Ga41Mo8,9.7
Au1Ga40Mo8,9.4
Ga0.21V0.79,10.0
Ga0.25V0.75,14.5
Ga0.31V0.69,15.4
Ga0.2V0.8,12.5
Ga0.25V0.75,12.7
Ga0.3V0.7,14.1
Ga6Y1,2.0
Cu1S2,1.505
Cu1S1Se1,1.75
Cu1Se2,2.365
Cu1Se1Te1,1.8
Ga1Nb3,20.5
Ga1V3,15.9
Ga1Nb3,19.8
N1.07Nb1,14.4
N0.78Nb1,10.5
N0.89Nb1,12.1
N0.93Nb1,13.3
C0.28N0.76Nb1,16.4
Ga1Nb3,8.2
Nb3Os2,1.78
Ga4Mo1,8.0
Ga4Mn0.006Mo0.994,7.14
Ga4Mn0.01Mo0.99,4.0
Ga2La1,1.15
Fe1U6,4.03
Fe1U6,3.99
Eu0.0034La0.9966,3.95
Eu0.011La0.989,2.16
Pd1T0.81,4.04
D0.966Pd1,8.25
H0.985Pd1,7.39
Lu3Rh4Ge13,2.3
Ca3Rh4Ge13,2.1
Ca3Ir4Ge13,1.7
La3Ru4Ge13,3.9
La3Ru1Pd3Ge13,4.8
Th3Os4Ge13,5.6
Ca3Co4Ge13,5.9
La3Co4Ge13,2.8
Yb3Co4Sn13,2.5
Ca3Rh4Sn13,8.7
Sr3Rh4Sn13,4.3
Yb3Rh4Sn13,8.6
Th3Rh4Sn13,1.9
Ca3Ir4Sn13,7.1
Sr3Ir4Sn13,5.1
La3Ir4Sn13,2.6
Th3Ir4Sn13,2.6
La3Rh4Pb13,2.2
Sc4Rh6Ge19,1.9
Sc4Ir6Ge19,1.4
Y4Ru6Sn19,1.3
Sc4Os6Sn19,1.5
Y4Os6Sn19,2.5
Tb4Os6Sn19,1.4
Ho4Os6Sn19,1.4
Er4Os6Sn19,1.25
Tm4Os6Sn19,1.1
Lu4Os6Sn19,1.8
Y4Ir6Sn19,2.2
Ta1Ge2,2.3
Re1Ge2,2.7
Ag0.7Al0.3,0.11
Ag0.667Al0.333,0.126
Ag0.65Al0.35,0.1
Ag0.625Al0.375,0.106
Ag0.6Al0.4,0.088
Ag0.885Sb0.115,0.019
Ag0.865Sb0.135,0.028
Ag0.845Sb0.155,0.037
Ag0.845Sn0.155,0.025
Ag0.835Sn0.165,0.047
Ag0.825Sn0.175,0.055
Ag0.82Sn0.18,0.066
Ag0.815Sn0.185,0.06
Ag0.795Sn0.205,0.09
Ag0.775Sn0.225,0.09
Cu0.86Ge0.14,0.025
Cu0.85Ge0.15,0.084
Cu0.84Ge0.16,0.117
Cu0.83Ge0.17,0.072
Cu0.825Ge0.175,0.145
Cu0.82Ge0.18,0.13
Cu0.815Ge0.185,0.175
Cu0.81Ge0.19,0.24
Cu0.86Si0.14,0.05
Au0.885Sn0.115,0.21
Au0.875Sn0.125,0.33
Au0.865Sn0.135,0.435
Au0.855Sn0.145,0.43
Au0.845Sn0.155,0.53
Au0.835Sn0.165,0.59
Au0.84In0.16,0.035
Au0.8In0.2,0.28
Sn1Te1,0.207
Sn1Te1,0.168
Sn1Te1,0.1
Sn1Te1,0.065
Sn0.965Te1,0.168
Sn0.975Te1,0.165
Sn0.966Te1,0.167
Sn0.976Te1,0.125
Sn0.97Te1,0.155
Sn0.98Te1,0.092
Sn0.985Te1,0.0485
Sn0.985Te1,0.0433
Sn0.985Te1,0.048
Sn0.99Te1,0.0285
Sn0.99Te1,0.024
Sn0.995Te1,0.0138
Sn0.97As0.005Te0.995,0.108
Sn0.97As0.01Te0.99,0.073
Sn0.97As0.015Te0.985,0.051
Sn0.97As0.017Te0.983,0.058
Sn0.97As0.02Te0.98,0.0318
Sn0.97As0.022Te0.978,0.0332
Sn0.97As0.025Te0.975,0.0138
Sn0.97As0.005Te0.995,0.068
Sn0.97As0.006Te0.994,0.048
Sn0.97As0.007Te0.993,0.038
Sn0.97As0.008Te0.992,0.022
Sn0.97As0.009Te0.991,0.0195
Sn0.97As0.01Te0.99,0.023
Zn1,0.85
In1,4.405
Sn1,3.71
Co1Si2,1.3
Ge2Rh3,2.12
Pd1Sb1,1.5
La1,6.06
La3In0.7Ga0.3,9.25
La3In0.5Tl0.5,8.9
La3In0.7Al0.3,9.42
La3In0.8Sn0.2,7.8
La3In0.9Cd0.1,9.55
Nb0.75Mo0.25C1,12.0
Nb0.5Mo0.5C1,13.1
Nb0.25Mo0.75C1,13.1
Nb0.05Mo0.95C1,13.5
Nb0.9W0.1C1,11.6
Nb0.8W0.2C1,13.7
Nb0.75W0.25C1,13.1
Nb0.7W0.3C1,13.2
Nb0.65W0.35C1,13.0
Nb0.5W0.5C1,12.5
Nb0.2W0.8C1,11.0
C1W1,9.93
Nb0.8Ta0.2C1,10.0
Nb0.4Ta0.6C1,9.33
Nb0.2Ta0.8C1,9.0
Mo0.9W0.1C1,11.7
Mo0.8W0.2C1,12.0
Mo0.6W0.4C1,11.3
Mo0.4W0.6C1,11.3
Mo0.2W0.8C1,10.1
Mo0.1W0.9C1,9.0
C1Ta1,10.0
Ta0.8Mo0.2C1,8.5
Ta0.6Mo0.4C1,8.67
Ta0.4Mo0.6C1,9.18
Ta0.2Mo0.8C1,10.5
Ta0.05Mo0.95C1,11.8
Ta0.8W0.2C1,9.92
Ta0.6W0.4C1,10.0
Ta0.4W0.6C1,9.41
Ta0.2W0.8C1,8.96
Mo0.95V0.05C1,13.9
Mo0.95Ti0.05C1,13.5
Mo0.95Zr0.05C1,13.2
Mo0.95Hf0.05C1,12.7
Mo0.9Re0.1C1,13.9
Mo0.9Ru0.1C1,13.7
Mo0.9V0.1C1,13.3
Mo0.9Ti0.1C1,13.1
Mo0.9Hf0.1C1,11.9
Mo0.9Zr0.1C1,11.5
Mo0.84V0.16C1,12.9
Mo0.84Ti0.16C1,12.8
Mo0.84Hf0.16C1,11.5
Mo0.84Zr0.16C1,11.0
Mo0.8V0.2C1,12.8
Mo0.8Ti0.2C1,12.0
Mo0.8Hf0.2C1,11.4
Mo0.8Zr0.2C1,10.9
Au0.12Zr0.88,2.78
Au0.1Zr0.9,2.78
Au0.07Zr0.93,2.52
Au0.05Zr0.95,1.79
Os0.01Zr0.99,1.52
Os0.025Zr0.975,2.97
Os0.05Zr0.95,5.38
Os0.06Zr0.94,5.7
Os0.07Zr0.93,5.66
Os0.1Zr0.9,5.17
Au0.374Te0.626,1.3
Au0.35Te0.65,1.58
Au0.332Te0.668,1.89
Au0.3Te0.7,1.99
Au0.28Te0.72,1.96
Au0.25Te0.75,1.85
Au0.24Te0.76,1.72
Au0.22Te0.78,1.54
Au0.2Te0.8,1.48
Au0.18Te0.82,1.56
Au0.16Te0.84,1.71
Au0.15Te0.85,1.64
Au0.14Te0.86,1.7
Bi0.02Sn0.98,3.85
Bi0.04Sn0.96,3.86
Bi0.045Sn0.955,3.88
Bi0.05Sn0.95,3.93
Bi0.055Sn0.945,3.94
Bi0.06Sn0.94,4.1
Bi0.08Sn0.92,4.15
Bi0.1Sn0.9,4.18
Sb0.02Sn0.98,2.64
Sb0.04Sn0.96,3.76
Sb0.06Sn0.94,3.96
Sb0.08Sn0.92,3.89
Ga1,7.84
Ga0.8Sb0.2,6.18
Ga0.58Sb0.42,1.17
Bi1,5.7
Bi0.9Sb0.1,5.2
Bi0.7Sb0.3,4.14
Bi0.5Sb0.5,2.94
Pb0.52Tl0.48,5.54
Pb0.06Tl0.94,2.7
Bi0.6Tl0.4,6.0
Pd0.04Ta1S2,4.2
Tl1Ba2Ca3Cu4O11,122.1
C0.3Ba2Ca4Cu5.7O11.18,117.5
C0.3Ba2Ca4Cu5.7O10.77,116.7
C0.3Ba2Ca4Cu5.7O10.69,116.3
C0.3Ba2Ca4Cu5.7O10.66,115.7
C0.3Ba2Ca4Cu5.7O10.57,115.1
C0.3Ba2Ca4Cu5.7O10.45,114.3
C0.3Ba2Ca4Cu5.7O10.34,113.5
Ba2Ca3Cu4O10.35,116.0
C1,2.68
Nb0.9Mg0.1B2,4.5
Nb0.75Mg0.25B2,4.5
Ce1Rh1Si3,0.45
Hf1,0.128
Ti0.496Zr0.504,1.8
Y1Sr2Nb0.9Cu2.1O7.9,27.0
Mg0.9Al0.1B2,30.5
Mg0.8Al0.2B2,23.5
Mg1B1.89C0.11,33.0
Mg1B1.87C0.13,28.0
Mg1B1.958C0.042,37.5
C6Yb1,6.52
Nb3Sn1,17.93
Sn1,3.77
Pr1.87Ce0.13Cu1O4-z,10.8
Pr1.85Ce0.15Cu1O4-z,21.3
Pr1.84Ce0.16Cu1O4-z,16.9
Pr1.83Ce0.17Cu1O4-z,14.0
Pr1.81Ce0.19Cu1O4-z,10.4
Pb1,7.186
Pb1,7.17
Pu1Rh1Ga5,9.0
Pu1Co1Ga5,17.8
Y1Ba2Cu3O7-z,87.2
Mg0.997Fe0.003B2,37.9
Mg0.994Fe0.006B2,37.0
Mg0.988Fe0.012B2,34.9
Mg0.97Fe0.03B2,32.9
La0.8Rh4P12,14.9
La0.95Ce0.05Ru4P12,6.8
La0.9Ce0.1Ru4P12,4.8
Bi2.12Sr1.88Cu1O6+z,6.38
Al1,1.16
Al0.99Li0.01,1.07
Al0.97Li0.03,1.05
Al0.95Li0.05,1.13
Al0.9Li0.1,1.29
C1,3.8
Bi2.05Sr1.95Cu1O6+z,8.94
La1.5Nd0.4Sr0.1Cu1O4,11.0
La1.475Nd0.4Sr0.125Cu1O4,7.9
La1.45Nd0.4Sr0.15Cu1O4,17.8
La1.425Nd0.4Sr0.175Cu1O4,25.0
La1.94Sr0.06Cu1O4,8.0
La1.91Sr0.09Cu1O4,27.5
La1.88Sr0.12Cu1O4,30.2
Pr1.85Ce0.15Cu1O4.175,16.25
Pr1.85Ce0.15Cu1O4.161,18.85
Pr1.85Ce0.15Cu1O4.065,16.75
Pr1.85Ce0.15Cu0.995Zn0.005O4.065,18.9
Pr1.85Ce0.15Cu0.99Zn0.01O4.065,18.41
Pr1.85Ce0.15Cu0.985Zn0.015O4.065,18.28
Pr1.85Ce0.15Cu0.98Zn0.02O4.065,18.01
Pr1.85Ce0.15Cu0.998Ni0.002O4.065,15.89
Pr1.85Ce0.15Cu0.995Ni0.005O4.065,11.92
Pr1.85Ce0.15Cu0.993Ni0.007O4.065,7.02
Pr1.85Ce0.15Cu0.99Ni0.01O4.065,0.93
Tl0.5Ba2Ca2Mg2Cu5.5O14-z,100.0
Tl0.5Ba2Ca2Mg2Cu5.5O14-z,132.6
Ag1Ba2Ca2Cu3O9-z,110.0
Ag1Ba2Ca3Cu4O11-z,117.0
Ag1Ba2Ca4Cu5O13-z,105.0
Ag1Ba2Ca5Cu6O15-z,80.0
Ba2Ca2Cu4O10-z,106.0
Ba2Ca3Cu5O12-z,116.0
Ba2Ca4Cu6O14-z,102.0
Ba2Ca5Cu7O16-z,78.0
Tl1Ba2Ca2Cu3O9-z,131.0
Mo3Sb7,2.25
C6Sr1,1.65
K1Os2O6,9.4
Ba2Ca3Cu4F2O8,55.0
Ba2Ca2Cu3F2O6,76.0
Y1Ba2Cu3O7-z,92.842
Y1Ba2Cu2.97P0.03O7-z,96.663
Y1Ba2Cu2.94P0.06O7-z,88.259
Y1Ba2Cu2.91P0.09O7-z,80.97
Y1Ba2Cu2.88P0.12O7-z,75.985
Tm1Ba2Cu3O6.95,89.93
Tm1Ba2Cu3O6.99,89.8
Tm1Ba2Cu3O6.96,89.88
Tm1Ba2Cu3O6.91,90.36
Tm1Ba2Cu3O6.94,89.88
Tm1Ba2Cu3O6.86,87.2
Tm1Ba2Cu3O6.87,83.6
Tm1Ba2Cu3O6.8,79.8
Tm1Ba2Cu3O6.72,64.5
C0.5Ba2Ca3Cu4.5Oz,117.0
Tl1C1Sr2Ba2Cu2O10,68.2
Y2Pd1Ge3,2.82
Y2Pd0.9Pt0.1Ge3,2.68
Y2Pd0.8Pt0.2Ge3,2.62
Y2Pd0.7Pt0.3Ge3,2.52
Y2Pd0.6Pt0.4Ge3,2.46
Y2Pd0.5Pt0.5Ge3,2.42
Y2Pd0.3Pt0.7Ge3,2.26
Y2Pt1Ge3,2.14
Nd1.85Ce0.15Cu0.995Mn0.005O4,22.1
Nd1.85Ce0.15Cu0.98Mn0.02O4,21.1
Nd1.85Ce0.15Cu0.96Mn0.04O4,21.0
Nd1.85Ce0.15Cu0.91Mn0.09O4,17.9
Ru1Sr2.2Gd1Ce1.8Cu2Oz,20.0
Ru0.9Nb0.1Sr2.2Gd1Ce1.8Cu2Oz,17.0
Ru0.8Nb0.2Sr2.2Gd1Ce1.8Cu2Oz,10.0
Ru0.7Nb0.3Sr2.2Gd1Ce1.8Cu2Oz,5.0
Y2Pd1Ge3,3.1
Y2Pd1Ge2.5Si0.5,3.3
Y2Pd1Ge2Si1,2.24
Bi1.6Pb0.4Sr1.9La0.1Cu1O6+z,43.3
Bi2.1Sr1.9Cu1O6+z,6.8
Bi2.1Sr1.7Ca0.2Cu1O6+z,79.2
Bi2.1Sr1.5Ca0.4Cu1O6+z,83.0
Bi2.1Sr1.3Ca0.6Cu1O6+z,77.8
Bi2.1Sr1.1Ca0.8Cu1O6+z,77.4
Bi2.1Sr0.95Ca0.95Cu1O6+z,74.8
Bi2.1Sr0.9Ca1Cu1O6+z,74.6
Bi2.1Sr0.7Ca1.2Cu1O6+z,75.0
Bi2.1Sr0.5Ca1.4Cu1O6+z,73.9
Na1Al1Si1,7.0
Li2Pd3B1,7.0
Li2Pt3B1,2.6
C3Y2,11.6
C3Y2,13.9
C3Y2,15.2
Np1Pd5Al2,5.0
Ga9Rh2,1.9
Ga9Ir2,2.2
Ce1Ir1Si3,1.4
Pr1Ru4As12,2.33
B2Nb1,9.5
Sc1,8.2
Sr2Y1Ru0.5Cu0.5O6,64.0
Al3Mg2,0.87
Sr2Ca3Cu4F2O8.6,38.0
Sr2Ca3Cu4F2O8.8,72.0
Sr2Ca3Cu4F3.8O8,95.0
Sr2Ca4Cu5F2O10.57,40.0
Ru1Sr2Gd1Cu2O8,49.0
Ru0.95Rh0.05Sr2Gd1Cu2O8,32.85
Ru0.9Rh0.1Sr2Gd1Cu2O8,31.0
Ru0.85Rh0.15Sr2Gd1Cu2O8,19.0
La1,5.0
Li0.33V2O5,8.5
Nb1Se2,7.2
Lu2Fe3Si5,4.5
Lu2Fe3Si5,5.6
Lu2Fe3Si5,6.25
Sc2Fe3Si5,4.46
Y2Fe3Si5,1.68
La1,4.9
La1,6.0
Tm2Fe3Si5,1.1
Tm0.9Lu0.1Fe3Si5,1.65
Tm0.84Lu0.16Fe3Si5,2.44
Tm0.8Lu0.2Fe3Si5,2.79
La1Pt2B2C1,10.0
Lu1Fe3Si5,6.0
Sc1Fe3Si5,4.3
Y2Fe3Si5,2.3
Y1.968Lu0.032Fe3Si5,2.9
Y1.68Lu0.32Fe3Si5,0.98
Y1.9Dy0.1Fe3Si5,2.75
Y1.6Lu0.4Fe3Si5,1.65
Pb1,7.2
Sr1,7.0
Th1Rh4B4,4.5
La1Mo6S8,7.0
Ag1Sn1Se2,4.7
Sb1,0.7
As1,2.0
Lu1,1.5
Ce1Pt3Si1,0.7
Ce1Pt3Si0.97Ge0.03,0.63
Ce1Pt3Si0.94Ge0.06,0.56
Ce1Pt3Si0.9Ge0.1,0.31
Cu0.055Ti1Se2,2.24
Cu0.065Ti1Se2,3.4
Cu0.08Ti1Se2,4.13
Cu0.1Ti1Se2,3.02
Ce1Rh1Si3,1.09
Ce1Rh1Si3,1.07
Pr1Ru4As12,2.3
La1Rh1Si3,2.2
La1Ir1Si3,2.2
Ca1Si2,1.37
Ca1Si1.9,1.35
Ca1Si2.2,1.37
Si2Sr1,3.1
Ba1Ge2,4.93
Tc2Y1,8.8
Sc1Tc2,10.9
Lu1Tc2,9.9
Re2Sc1,0.93
Lu1Re2,1.7
Mo1.965Zr0.035B1C1,6.9
Mo1.935Zr0.065B1C1,6.2
Mo1.9Nb0.1B1C1,6.7
Mo1.85Nb0.15B1C1,6.2
Mo1.94Hf0.06B1C1,5.8
Mo1.905Hf0.095B1C1,5.0
Mo1.86Ta0.14B1C1,5.6
Mo1.7Ta0.3B1C1,4.6
Mo1.8W0.2B1C1,6.82
Mo1.8Rh0.2B1C1,9.1
Mo2B1C1,7.5
Pu1Co1Ga5,18.25
Li0.18Zr1N1Cl1,11.6
Mg12Ir19B16,5.7
Th1Rh0.1Si1.9,2.15
Th1Rh0.85Si1.15,5.48
Th1Ir0.1Si1.9,2.75
Th1Ir0.75Si1.25,3.82
Pu1Co1Ga5,15.0
Th1Ir1Si1,6.5
Si2Th1,3.14
La1Rh1Si1,4.35
La1Ir1Si1,2.3
Y5Os4Si15,10.8
Er5Os4Si15,5.5
Tb5Os4Si15,3.2
Dy5Os4Si15,3.5
Ho5Os4Si15,4.5
Tm4Os4Si13,2.6
Y4Os4Si13,9.8
Li0.3Ti1.1S2,13.0
S2Ti1,45.0
Rb2.7Tl2.2C60,23.2
La1Ir2Si2,1.56
Ag1Sn1Se2,4.66
Ag0.95Sn1.05Se2,5.21
Ag0.85Sn1.15Se2,6.12
Ag0.81Sn1.19Se2,6.36
Ag0.76Sn1.24Se2,6.72
La1Ir2Si2,1.58
U1Co1Ge1,0.8
U1Co1Ge1,0.45
Na0.3Co0.995Mn0.005H2.6O3.3,4.05
Na0.3Co0.985Mn0.015H2.6O3.3,3.34
Ca1.89Na0.11Cu1Cl2O2,15.14
Ca1.88Na0.12Cu1Cl2O2,18.4
Ca1.85Na0.15Cu1Cl2O2,23.45
Ca1.82Na0.18Cu1Cl2O2,27.11
Ca1.81Na0.19Cu1Cl2O2,27.7
Li2Pd3B1,6.95
Li2Pd1.5Pt1.5B1,3.9
Li2Pt3B1,2.56
Ca1Al1Si1,6.1
Ca1Al1Si1,5.6
Ca1Al1Si1,7.1
Ca1Al1Si1,7.67
Ca1Al1Si1,5.68
Ca1Al1Si1,6.5
Zr0.12N1Cl1,12.7
La1Pd1Si3,2.6
Na0.33H2.86Co1O3.42,4.5
C3La2,6.5
Bi2Sr1.6La0.4Cu1O6.36,31.2
Bi2Sr2Ca1Cu2O8.12,81.3
Bi2Sr2Ca2Cu3O10.28,108.7
Ti2In1C1,3.1
Nb2As1C1,2.0
Cu0.06Ti1Se2,2.3
Ba1Pt4Ge12,5.35
Sr1Pt4Ge12,5.1
Cu0.7Ti1Se2,3.9
U1Ru2Si2,1.41
U1Ru2Si2,1.5
U1Ru1.99Re0.01Si2,0.23
Er1Ni2B2C1,10.23
Er1Ni1.98Fe0.02B2C1,10.27
Er1Ni1.96Fe0.04B2C1,9.5
Er1Ni1.94Fe0.06B2C1,8.5
Er1Ni1.92Fe0.08B2C1,4.63
Er1Ni1.9Fe0.1B2C1,4.31
Tm1Ni2B2C1,10.79
Tm1Ni1.96Fe0.04B2C1,7.97
Tm1Ni1.92Fe0.08B2C1,7.39
Tm1Ni1.9Fe0.1B2C1,6.64
Tm1Ni1.88Fe0.12B2C1,5.52
Tm1Ni1.84Fe0.16B2C1,3.99
Rh17S15,5.4
Er1Ni2B2C1,9.3
La1Pt4Ge12,8.27
Pr1Pt4Ge12,7.91
Sr1Pt4Ge12,5.4
Ba1Pt4Ge12,5.0
Hg0.9Cr0.1Sr2Cu1O4,62.3
Hg0.2Cr0.8Sr2Cu1O4,53.6
Ru1Sr2Gd1.4Ce0.6Cu2Oz,20.0
Ru0.97Sn0.03Sr2Gd1.4Ce0.6Cu2Oz,35.0
Ru0.95Sn0.05Sr2Gd1.4Ce0.6Cu2Oz,24.0
Nb1Se2,6.7
Hg1Ba2Ca4Cu5Oz,107.0
B2Os1,2.17
B2Os1,2.12
C6Ca1,11.6
La1.91Y0.09Cu1O4+z,21.4
La1.67Tb0.33Cu1O4+z,12.0
Hg1Ba2Ca4Cu5Oz,87.0
La1.85Sr0.15Cu1O4,44.0
La1.7Sr0.3Cu1O4,16.0
B2Ru1,1.6
B2Os1,2.1
B6La1,0.45
B2.5Mo1,8.1
B3Ru7,3.38
B3Re7,3.08
V2Ir1B2,1.12
Mo2Ir1B2,3.6
Mo1.75Ru1.25B2,3.7
W1.75Ru1.25B2,3.38
Tl0.5Ba2Ca2Cu1Zn2.5O10-z,120.0
Tl0.5Ba2Ca1.5Mg0.5Cu1Zn2.5O10-z,100.0
Tl0.5Ba2Ca1Mg1Cu1Zn2.5O10-z,112.0
Tl0.5Ba2Ca0.5Mg1.5Cu1Zn2.5O10-z,115.0
Pd2Hf1Al1,3.4
Pd2Zr1Al1,3.2
Bi1.7Pb0.4Sr2Ca1.1Cu2.1Oz,72.2
Bi1.7Pb0.4Sr2Ca1.1Cu2.1Nd0.1Oz,83.15
Bi1.7Pb0.4Sr2Ca1.1Cu2.1Nd0.2Oz,87.65
Bi1.7Pb0.4Sr2Ca1.1Cu2.1Nd0.3Oz,88.3
Bi1.7Pb0.4Sr2Ca1.1Cu2.1Nd0.4Oz,87.9
Bi1.7Pb0.4Sr2Ca1.1Cu2.1Nd0.5Oz,85.65
Tl1Ba2Ca2Cu3O9-z,111.98
Tl1Ba2Ca1.9Na0.1Cu3O9-z,106.01
Tl1Ba2Ca1.85Na0.15Cu3O9-z,105.51
Tl1Ba2Ca1.8Na0.2Cu3O9-z,103.03
Tl1Ba2Ca1.7Na0.3Cu3O9-z,100.31
Tl1Ba2Ca1.6Na0.4Cu3O9-z,99.3
Pr1Os2.4Ru1.6Sb12,1.13
Pr1Os2Ru2Sb12,0.81
Pr1Os1.2Ru2.8Sb12,0.8
Pr0.8Nd0.2Os4Sb12,1.43
Pr0.55Nd0.45Os4Sb12,1.01
Ce1Co1In4.75Cd0.25,2.13
Ce1Co1In4.5Cd0.5,1.35
La1Bi1Pt1,0.9
Al2La1,3.24
La0.999Gd0.001Al2,2.78
La0.998Gd0.002Al2,2.39
La0.997Gd0.003Al2,1.89
La0.996Gd0.004Al2,1.38
La0.995Gd0.005Al2,0.932
In1La3,9.95
La3Pr0.3In1,6.2
La3Pr0.6In1,3.2
La3Pr0.75In1,1.94
Ce1Ir1In4.875Cd0.125,0.194
La0.9985Tb0.0015Al2,2.9
La0.996Tb0.004Al2,2.4
La0.992Tb0.008Al2,1.61
La0.988Tb0.012Al2,0.94
Al2La1,3.25
La1Al1.995Si0.005,2.9
Pd2Yb1Sn1,2.36
Au2In1Y1,1.74
Au1.8Pd0.2In1Y1,2.27
Au1.6Pd0.4In1Y1,2.64
Au1.3Pd0.7In1Y1,2.68
Au1Pd1In1Y1,2.3
Au0.2Pd1.8In1Y1,1.24
Pd2In1Y1,1.04
Pd2Sn1Y1,4.9
Ni2Hf1Al1,0.74
Ni2Zr1Al1,1.38
Ni2Hf1Ga1,1.12
Ni2Nb1Sn1,3.4
La0.92Tm0.08Sn3,5.17
La0.84Tm0.16Sn3,3.33
La0.933Gd0.067Sn3,4.64
La0.92Gd0.08Sn3,4.28
C3La2,11.2
B2.2Nb1,3.6
B2.34Nb1,9.16
Ca24Al28O66,0.195
Ce1Ir0.75Co0.25In5,1.52
Ce1Ir0.3Co0.7In5,2.0
Li0.9Mg0.1,11.0
Ce1Pt3Si1,0.745
Ce1Pt2.94Ni0.06Si1,0.545
Ce1Pt2.82Ni0.18Si1,0.473
Lu4.98Yb0.02Ir4Si10,3.0
Lu4.95Yb0.05Ir4Si10,2.0
Lu4.93Yb0.07Ir4Si10,1.5
Ce1Rh1In5,0.11
In3Rh1,0.19
Bi1.6Pb0.4Sr2Ca2Cu3O10,108.0
Y1Ba1.8Sr0.2Cu3O7-z,90.0
Y1Ba1.5Sr0.5Cu3O7-z,85.5
Y1Ba1Sr1Cu3O7-z,81.0
Tl0.5Ba2Ca3Cu4.5O12-z,108.5
Tl0.5Ba2Ca3Cu4Zn0.5O12-z,110.5
Tl0.5Ba2Ca3Cu3.5Zn1O12-z,112.5
Tl0.5Ba2Ca3Cu3Zn1.5O12-z,113.3
Tl0.5Ba2Ca3Cu2.5Zn2O12-z,115.3
Tl0.5Ba2Ca3Cu2Zn2.5O12-z,119.8
Tl0.5Ba2Ca3Cu1.5Zn3O12-z,121.3
Tl0.5Ba2Ca3Cu1Zn3.5O12-z,122.2
Ag7N1O11,1.025
Ag7H1F2O8,1.5
La1.901Ba0.099Cu1O4,12.3
La1.87Ba0.13Cu1O4,5.94
La1.825Ba0.175Cu1O4,25.7
La1.8Ba0.2Cu1O4,9.38
La1.89Na0.11Cu1O4,16.0
La1.59Na0.41Cu1O4,18.0
Sm1La0.82Sr0.18Cu1O4,37.0
Sm0.96La0.84Sr0.2Cu1O4,35.0
Sm1La0.802Sr0.198Cu1O4,17.2
Sm0.716La1.084Sr0.2Cu1O4,18.1
Eu1.007La0.793Sr0.2Cu1O4,29.2
Gd0.91La0.89Sr0.2Cu1O4,13.5
Sm0.9La0.9Sr0.2Cu1O4,34.0
Bi0.5La1Y0.5Sr1Cu2O6.04,30.0
Bi0.5La1.5Sr1Cu2O6.02,28.0
Bi0.3Pb0.2La1.5Sr1Cu2O5.94,24.0
Bi0.3Pb0.3La1.2Sr1.2Cu2O5.81,55.0
Bi0.2Pb0.4La1.2Sr1.3Cu1.9O5.78,75.0
Bi0.2Pb0.3La1.3Sr1.2Cu2O5.78,50.0
Bi0.1Pb0.4La1.2Sr1.3Cu2O5.78,44.0
Bi0.1Pb0.4La1.3Sr1.2Cu2O5.83,25.0
Bi0.1Pb0.4La1.4Sr1.1Cu2O5.84,25.0
Ta0.5Nb0.5C1,11.1
Li2Pd3B1B1,8.19
Li2Pd2.85Ni0.15B1,7.58
Li2Pd2.7Ni0.3B1,7.0
Li2Pd2.55Ni0.45B1,6.58
Li2Pd2.4Ni0.6B1,6.5
Mo3Sb7,2.2
Lu2Fe3Si5,6.2
Er2Fe3Si5,0.93
U1Co1Ge1,0.766
U1Co1Ge0.98Si0.02,0.667
U1Co1Ge0.96Si0.04,0.541
U1Co1Ge0.94Si0.06,0.423
U1Co1Ge0.92Si0.08,0.288
U1Co1Ge0.9Si0.1,0.153
Nd0.4Ce0.83Co1In5,0.74
Nd0.4Ce0.85Co1In5,1.42
Nd0.4Ce0.6Co1In5,1.74
Ce1Pd5Al2,0.57
Ce1Pt3Si1,0.46
La1Pt3Si1,0.6
Zr1Ru1Ge1,9.0
La1Rh1Sn1,1.85
La1Rh1Sn1,1.9
La1Pt1Si1,3.3
La1Pt1Ge1,3.4
La1Rh1Sn1,2.0
Ca1Li2,13.0
Rb0.14W1O3,5.1
Rb0.16W1O3,5.1
Rb0.2W1O3,4.7
Mg1B1.924C0.076,35.8
Mg1B1.904C0.096,35.5
La1Fe1As1F0.11O0.89,27.5
La1F0.05Fe1As1O0.95,26.0
La1Ni1P1O1,3.0
Li1,0.0004
Th1Pt4Ge12,4.8
Li0.9Mo6O17,1.56
Mg1C0.98Ni3,6.5
Mg1C0.69Ni3,1.8
Mg0.9Zn0.1C0.98Ni3,4.5
Mg0.8Zn0.2C1.05Ni3,4.0
Mg0.7Zn0.3C0.99Ni3,2.5
Tl0.5Ba2Ca2Cu3.5O10-z,95.5
Tl0.5Ba2Ca1.5Mg0.5Cu3.5O10-z,96.5
Tl0.5Ba2Ca1Mg1Cu3.5O10-z,96.5
Tl0.5Ba2Ca0.5Mg1.5Cu3.5O10-z,98.0
B2Nb0.83,9.77
B2Nb1,5.53
B2Nb1,6.13
B2Nb1,7.83
La1Ru2P2,4.1
La1Ir2Ge2,1.5
Ba1Ni2P2,3.0
La0.87Sr0.13Fe1As1O1,20.3
La1Fe1As1F0.1O0.9,25.8
Li0.37Hf1N1Cl1,20.0
Li0.37M0.3Hf1N1Cl1,22.5
Li0.37M0.2Hf1N1Cl1,25.6
Li0.37M0.2Hf1N1Cl1,25.0
C1,0.9
C1,2.0
C1,2.9
La1.92Ce0.08Cu1O4,29.0
Ce0.9La0.1Rh1In5,1.6
Ce1Rh1In4.84Sn0.16,1.2
Mo1N1,13.5
Mo3Sb7,7.5
B2Mg0.98,38.4
Mg0.95Li0.05B2,38.25
Mg0.9Li0.1B2,35.55
Mg0.92Li0.08B2,38.0
Mg0.89Li0.11B2,35.3
Mg0.94Li0.06B1.96C0.04,35.6
Mg0.91Li0.09B1.84C0.16,30.15
Mg0.9Li0.1B1.82C0.18,28.5
Mg0.89Li0.11B1.88C0.12,29.9
La1.45Nd0.4Sr0.15Cu1O4,21.8
La1.925Ce0.075Cu1O4,25.0
La1.89Ce0.11Cu1O4,29.0
La1.865Ce0.135Cu1O4,21.2
Be1,0.6
Al1,1.8
Sr2Ru1O4,2.69
Ru1Sr2Eu1Cu2O8,32.9
Ru0.9Sn0.1Sr2Eu1Cu2O8,28.4
Ru0.8Sn0.2Sr2Eu1Cu2O8,30.3
Ru0.7Sn0.3Sr2Eu1Cu2O8,29.5
Ru0.6Sn0.4Sr2Eu1Cu2O8,24.2
Ru1Sr2Gd1Cu2O8,50.7
Ru0.8Sn0.2Sr2Gd1Cu2O8,48.1
La1.92Ba0.08Cu1O4,29.0
La1.905Ba0.095Cu1O4,27.0
Mo3Sb7,2.1
Sr0.9La0.1Cu1O2,39.9
Sr0.875La0.125Cu1O2,36.9
Sr0.85La0.15Cu1O2,31.9
Fe1Sr2Y1Cu2O6+z,59.0
Fe1Sr2Y0.75Nd0.25Cu2O6+z,34.0
Fe1Sr2Y0.5Nd0.5Cu2O6+z,23.0
Bi1,0.64
Pb0.5B0.5Sr1.5Ba0.5Y0.4Ca0.4Cu2Oz,45.0
Mg0.99Co0.01B2,38.7
Mg0.98Co0.02B2,37.4
Mg0.97Co0.03B2,36.2
Mg0.99Mn0.01B2,30.6
Mg0.98Mn0.02B2,23.2
Mg0.97Mn0.03B2,12.4
La1Rh2Si2,3.8
Y1Rh2Si2,3.1