composition,critical_temperature_tc
Y1Ba2Cu3.92Zn0.08O8,27.7
Y1Ba2Cu3.88Zn0.12O8,25.7
Y1Ba2Cu3.7Zn0.3O8,22.5
Y1Ba2Cu4O8,81.3
Y1Ba2Cu3.96Zn0.04O8,55.8
Y1Ba2Cu3.9Zn0.1O8,25.3
Y1Ba2Cu2.88Ni0.12O7+Z,76.3
Y1Ba2Cu2.82Ni0.18O7+Z,72.2
Y1Ba2Cu3O7+Z,90.5
Y1Ba2Cu2.94Ni0.06O7+Z,83.5
Y1Ba2Cu2.94Zn0.06O7+Z,68.0
Y1Ba2Cu2.94Fe0.06O7+Z,86.0
Y1Ba2Cu2.94Al0.06O6,86.0
La1.7Sr0.3Ca1Cu2O6,34.0
La1.7Sr0.3Ca1Cu2O6,44.0
La1.7Sr0.3Ca1Cu2O6,50.0
La1.7Sr0.3Ca1Cu2O6,54.0
La1.8Sr0.2Ca1Cu2O6,27.0
La1.8Sr0.2Ca1Cu2O6,38.0
La1.8Sr0.2Ca1Cu2O6,45.0
La1.8Sr0.2Ca1Cu2O6,53.0
Bi2.2Sr1.8Ca1.05Cu1.45Li0.7OZ,91.0
Bi2Sr2Ca1Cu2O8-Z,81.0
Bi2Sr2Ca1Cu2O8-Z,62.0
La1.774Sr0.226Cu1O4,19.8
Bi2Sr2Ca1Cu2O8.2,65.0
Bi2Sr2Ca1Cu2O8.199,70.0
Bi2Sr2Ca1Cu2O8.198,78.0
Bi2Sr2Ca1Cu2O8.196,85.0
Bi2Sr2Ca1Cu2O8.195,91.0
Bi2Sr2Ca1Cu2O8.194,92.0
Bi2Sr2Ca1Cu2O8.118,91.0
Bi2Sr2Ca1Cu2O8.1,90.0
Nd1.85Ce0.15Cu1O4,21.6
Nd1.85Ce0.15Cu0.998Co0.002O4,16.5
Nd1.85Ce0.15Cu0.996Co0.004O4,11.2
Nd1.85Ce0.15Cu0.995Co0.005O4,7.3
Nd1.85Ce0.15Cu0.994Co0.006O4,4.3
Nd1.85Ce0.15Cu0.999Ni0.001O4,19.5
Nd1.85Ce0.15Cu0.998Ni0.002O4,17.3
Nd1.85Ce0.15Cu0.997Ni0.003O4,15.3
Nd1.85Ce0.15Cu0.996Ni0.004O4,13.5
Nd1.85Ce0.15Cu0.995Ni0.005O4,11.2
Nd1.85Ce0.15Cu0.994Ni0.006O4,8.4
Nd1.85Ce0.15Cu0.993Ni0.007O4,5.6
Nd1.85Ce0.15Cu0.996Zn0.004O4,18.1
Nd1.85Ce0.15Cu0.99Zn0.01O4,15.1
Nd1.85Ce0.15Cu0.98Zn0.02O4,8.7
Y1Ba2Cu2.975Co0.025OZ,90.3
Y1Ba2Cu2.95Co0.05OZ,86.1
Y1Ba2Cu2.95Co0.05OZ,84.0
Y1Ba2Cu2.925Co0.075OZ,77.0
Y1Ba2Cu2.9Co0.1OZ,70.0
Y1Ba2Cu2.875Co0.125OZ,64.3
Y1Ba2Cu2.85Co0.15OZ,58.9
Bi2Sr2Ca1Cu2OZ,83.0
La1.92Sr0.08Cu1OZ,19.8
Y1Ba2Cu3OZ,90.8
Gd1Ba2Cu3O7-Z,93.5
Gd0.95Pr0.05Ba2Cu3O7-Z,88.0
Gd0.9Pr0.1Ba2Cu3O7-Z,76.0
Gd0.85Pr0.15Ba2Cu3O7-Z,63.0
Gd0.8Pr0.2Ba2Cu3O7-Z,56.0
Gd0.75Pr0.25Ba2Cu3O7-Z,51.0
Gd0.7Pr0.3Ba2Cu3O7-Z,43.2
Gd0.65Pr0.35Ba2Cu3O7-Z,30.4
Gd0.6Pr0.4Ba2Cu3O7-Z,16.0
Bi2Sr2Ca1Cu2OZ,93.0
La0.8Pr0.2Ba2Cu3O7-Z,20.5
Nd0.8Pr0.2Ba2Cu3O7-Z,25.8
Sm0.8Pr0.2Ba2Cu3O7-Z,49.4
Eu0.8Pr0.2Ba2Cu3O7-Z,47.0
Gd0.8Pr0.2Ba2Cu3O7-Z,58.5
Dy0.8Pr0.2Ba2Cu3O7-Z,66.7
Ho0.8Pr0.2Ba2Cu3O7-Z,79.5
Er0.8Pr0.2Ba2Cu3O7-Z,76.5
Tm0.8Pr0.2Ba2Cu3O7-Z,81.8
Yb0.8Pr0.2Ba2Cu3O7-Z,82.4
Lu0.8Pr0.2Ba2Cu3O7-Z,75.2
Y0.8Pr0.2Ba2Cu3O7-Z,71.7
Gd1Ba2Cu3O7-Z,91.5
Gd0.9Pr0.1Ba2Cu3O7-Z,73.5
Gd0.8Pr0.2Ba2Cu3O7-Z,58.0
Gd0.7Pr0.3Ba2Cu3O7-Z,35.0
Gd0.65Pr0.35Ba2Cu3O7-Z,15.5
Bi2Sr2Ca0.6Gd0.4Cu1.96LI0.04O8+Z,74.0
Bi2Sr2Ca0.6Gd0.4Cu1.85LI0.15O8+Z,64.0
Bi2Sr2Ca0.6Gd0.4Cu1.8LI0.2O8+Z,44.0
Bi2Sr2Ca0.6Gd0.4Cu1.8LI0.2O8+Z,5.0
Bi0.7Pb0.3Sr1Ca1Cu1.5POZ,85.0
Bi4Sr3Ca3Cu4O16.25,83.0
Bi4Sr3Ca2.8Tm0.2Cu4O16+Z,88.0
Bi4Sr3Ca2.5Tm0.5Cu4O16+Z,91.5
Bi4Sr3Ca2Tm1Cu4O16+Z,49.0
Pb1Sr1Ba0.5La0.5Cu2O6-Z,27.0
Bi1.5Pb0.4Sb0.06Sr2Ca2Cu2OZ,113.0
Bi1.5Pb0.4Sb0.1Sr2Ca2Cu2OZ,114.7
Bi1.5Pb0.4Sb0.18Sr2Ca2Cu2OZ,114.0
Bi1.5Pb0.4Sb0.32Sr2Ca2Cu2OZ,116.5
Y0.9Pr0.1Ba2Cu3O6.95,86.0
Pb2Sr0.8La1.2Cu2O6+Z,31.0
Pb0.5Sr2.5Y0.5Ca0.5Cu2O7-Z,75.0
Pb1.8Bi0.2Sr1.1La0.9Cu2O6+Z,24.0
Tl1.9Ca0.03Ba2Cu1OZ,84.0
Tl2Ca0.67Ba2Cu2OZ,110.0
Tl1.8Ca1.6Ba2Cu2.9OZ,118.0
Tl2.1Ca2.6Ba2Cu3.8OZ,115.0
La1.8Sr0.2Cu1O4,30.4
La1.76Sr0.24Cu1O4,19.0
La1.7Sr0.3Cu1O4,17.8
La1.92Sr0.08Cu1O4,29.7
La1.9Sr0.1Cu1O4,31.6
La1.9Sr0.1Cu1O4,25.2
La1.9Sr0.1Cu1O4,29.1
La1.85Sr0.15Cu1O4,31.6
La1.85Sr0.15Cu1O4,31.4
Eu1Ba2Cu2.97Zn0.03OZ,70.6
Eu1Ba2Cu2.895Zn0.105OZ,25.4
Eu1Ba2Cu3OZ,93.0
La1.9Sr0.1Cu1O4,28.5
La1.7Sr0.3Cu1O4,18.3
Y1Ba2Cu3OZ,91.2
Y1Ba2Cu3OZ,91.1
Gd1Ba2Cu3OZ,91.4
Sm1.88Ce0.12Cu1O4,3.9
Sm1.8Ce0.2Cu1O4,14.7
La1.85Sr0.15Cu1O4,35.8
La1.85Sr0.15Cu0.996Fe0.004O4,29.4
La1.85Sr0.15Cu0.992Fe0.008O4,20.4
La1.85Sr0.15Cu0.988Fe0.012O4,11.6
La1.85Sr0.15Cu0.985Fe0.015O4,5.2
La1.85Sr0.15Cu0.982Fe0.018O4,0.2
La1.85Sr0.15Cu1O4,35.3
La1.85Sr0.15Cu0.996Zn0.004O4,31.0
La1.85Sr0.15Cu0.992Zn0.008O4,25.5
La1.85Sr0.15Cu0.988Zn0.012O4,20.2
La1.85Sr0.15Cu0.985Zn0.015O4,16.6
La1.85Sr0.15Cu0.982Zn0.018O4,12.6
La1.85Sr0.15Cu0.979Zn0.021O4,10.4
La1.85Sr0.15Cu0.976Zn0.024O4,6.6
La1.85Sr0.15Cu0.973Zn0.027O4,2.8
La1.85Sr0.15Cu1O4,34.7
La1.85Sr0.15Cu0.996Co0.004O4,30.0
La1.85Sr0.15Cu0.992Co0.008O4,23.1
La1.85Sr0.15Cu0.988Co0.012O4,18.6
La1.85Sr0.15Cu0.985Co0.015O4,16.0
La1.85Sr0.15Cu0.982Co0.018O4,8.9
La1.85Sr0.15Cu0.979Co0.021O4,6.0
La1.85Sr0.15Cu0.976Co0.024O4,4.4
La1.85Sr0.15Cu0.973Co0.027O4,2.5
La1.85Sr0.15Cu0.995Ga0.005O4,29.8
La1.85Sr0.15Cu0.99Ga0.01O4,24.1
La1.85Sr0.15Cu0.985Ga0.015O4,13.7
La1.85Sr0.15Cu0.98Ga0.02O4,8.3
La1.85Sr0.15Cu0.977Ga0.023O4,0.9
La1.85Sr0.15Cu0.975Ga0.025O4,0.7
La1.85Sr0.15Cu1O4,38.1
La1.85Sr0.15Cu0.993Ni0.007O4,32.6
La1.85Sr0.15Cu0.986Ni0.014O4,27.9
La1.85Sr0.15Cu0.98Ni0.02O4,22.2
La1.85Sr0.15Cu0.975Ni0.025O4,17.4
La1.85Sr0.15Cu0.97Ni0.03O4,13.4
La1.85Sr0.15Cu0.966Ni0.034O4,9.4
La1.85Sr0.15CuNi0.037O4,6.1
La1.85Sr0.15CuNi0.04O4,2.5
La1.85Sr0.15Cu1O4,34.4
La1.85Sr0.15Cu0.996Al0.004O4,30.4
La1.85Sr0.15Cu0.992Al0.008O4,27.1
La1.85Sr0.15Cu0.988Al0.012O4,17.9
La1.85Sr0.15Cu0.985Al0.015O4,15.0
La1.85Sr0.15Cu0.982Al0.018O4,9.1
La1.85Sr0.15Cu0.979Al0.021O4,3.7
Y1Ba2Cu3O7-Z,91.2
Y1Ba2Cu2.94Fe0.06O7-Z,82.1
Y1Ba2Cu2.88Fe0.12O7-Z,76.0
Y1Ba2Cu2.76Fe0.24O7-Z,48.3
In0.5Pb0.5Sr2Y0.5Ca0.5Cu2OZ,36.0
In0.4Pb0.6Sr2Y0.5Ca0.5Cu2OZ,47.0
In0.3Pb0.7Sr2Y0.5Ca0.5Cu2OZ,40.0
Y1Ba2Cu3O6.97,89.5
Y1Ba2Cu4O7.9,78.3
Y1Ba1.95La0.05Cu4OZ,74.3
Y1Ba1.9La0.1Cu4O7.8,67.8
Y1Ba1.85La0.15Cu4OZ,63.4
Y1Ba1.8La0.2Cu4O7.9,60.1
Y1Ba1.75La0.25Cu4OZ,60.1
Y1Ba1.7La0.3Cu4O7.8,62.7
Y0.95Ca0.05Ba1.9La0.1Cu4O7.9,68.8
Y0.9Ca0.1Ba1.9La0.1Cu4O7.8,79.0
Y0.85Ca0.15Ba1.9La0.1Cu4OZ,79.3
Y0.8Ca0.2Ba1.9La0.1Cu4OZ,80.7
Y0.75Ca0.25Ba1.9La0.1Cu4OZ,80.4
Y1Ba2Cu2.8Fe0.2O6.76,27.8
Y1Ba2Cu2.8Fe0.2O6.8,43.9
Y1Ba2Cu2.8Fe0.2O6.85,57.7
Y1Ba2Cu2.8Fe0.2O6.9,58.8
Y1Ba2Cu2.9Fe0.1O6.64,20.5
Y1Ba2Cu2.9Fe0.1O6.7,28.5
Y1Ba2Cu2.9Fe0.1O6.75,37.4
Y1Ba2Cu2.9Fe0.1O6.8,53.1
Y1Ba2Cu2.9Fe0.1O6.85,63.8
Y1Ba2Cu2.9Fe0.1O6.9,74.9
Y1Ba2Cu2.95Fe0.05O6.55,17.8
Y1Ba2Cu2.95Fe0.05O6.6,26.2
Y1Ba2Cu2.95Fe0.05O6.64,37.4
Y1Ba2Cu2.95Fe0.05O6.69,43.5
Y1Ba2Cu2.95Fe0.05O6.73,52.7
Y1Ba2Cu2.95Fe0.05O6.79,67.6
Y1Ba2Cu2.95Fe0.05O6.84,76.4
Y1Ba2Cu2.95Fe0.05O6.9,88.7
Y1Ba2Cu3O6.48,19.7
Y1Ba2Cu3O6.53,40.0
Y1Ba2Cu3O6.58,43.5
Y1Ba2Cu3O6.62,50.4
Y1Ba2Cu3O6.68,54.6
Y1Ba2Cu3O6.71,59.6
Y1Ba2Cu3O6.75,68.8
Y1Ba2Cu3O6.8,81.8
Y1Ba2Cu3O6.85,89.0
Y1Ba2Cu3OZ,89.5
Bi2Sr1.6Ca1.2Lu0.2Cu2O8.26,88.6
Bi2Sr1.6Ca1.2Yb0.2Cu2O8.26,88.3
Bi2Sr1.6Ca1.2Y0.2Cu2O8.26,89.1
Bi2Sr1.6Ca1.2Dy0.2Cu2O8.26,88.0
Bi2Sr1.6Ca1.2Gd0.2Cu2O8.26,87.1
Bi2Sr1.6Ca1.2Eu0.2Cu2O8.26,87.1
Bi2Sr1.6Ca1.2Nd0.2Cu2O8.26,86.0
Bi2Sr1.6Ca1.2La0.2Cu2O8.27,86.0
Bi2Sr1.8Ca1Lu0.2Cu2O8.27,91.1
Bi2Sr1.8Ca1Yb0.2Cu2O8.26,90.1
Bi2Sr1.8Ca1Y0.2Cu2O8.25,90.4
Bi2Sr1.8Ca1Dy0.2Cu2O8.26,89.2
Bi2Sr1.8Ca1Gd0.2Cu2O8.26,88.9
Bi2Sr1.8Ca1Eu0.2Cu2O8.25,88.9
Bi2Sr1.8Ca1Nd0.2Cu2O8.26,87.7
Bi2Sr1.8Ca1La0.2Cu2O8.27,87.8
Bi2Sr2Ca0.8Lu0.2Cu2O8.27,92.5
Bi2Sr2Ca0.8Yb0.2Cu2O8.26,92.1
Bi2Sr2Ca0.8Y0.2Cu2O8.27,92.6
Bi2Sr2Ca0.8Dy0.2Cu2O8.26,91.7
Bi2Sr2Ca0.8Gd0.2Cu2O8.27,90.9
Bi2Sr2Ca0.8Eu0.2Cu2O8.26,90.9
Bi2Sr2Ca0.8Nd0.2Cu2O8.26,89.7
Bi2Sr2Ca0.8La0.2Cu2O8.26,89.0
Tl1La1Sr1Cu1O5,34.0
Tl0.8La1Sr1Cu1.2O5,37.0
Tl0.6La1Sr1Cu1.4O5,33.0
Tl0.4La1Sr1Cu1.6O5,30.0
Tl0.7La1Sr1Cu1O5,38.5
Bi1.55Pb0.45Sr2Eu0.2Ca0.8Cu2O8+Z,91.0
Bi1.55Pb0.45Sr2Gd0.2Ca0.8Cu2O8+Z,93.0
Bi1.55Pb0.45Sr2Tb0.2Ca0.8Cu2O8+Z,94.0
Bi1.55Pb0.45Sr2Dy0.2Ca0.8Cu2O8+Z,95.0
Bi1.55Pb0.45Sr2Ho0.2Ca0.8Cu2O8+Z,94.0
Bi1.55Pb0.45Sr2Er0.2Ca0.8Cu2O8+Z,94.0
Tl1Ba2Cu1O5,95.0
Tl1Ba1Sr1Cu1O5,41.5
Tl1Ba1Sr1Cu1O5,56.5
Y1Ba2Cu3O6.65,62.2
Dy1Ba2Cu4O8,75.0
Y1Ba2Cu3O7,90.7
Y1Ba2Cu3O7,87.0
Tl2Ba2Ca1Cu2O8+Z,98.0
Tl2Ba2Ca0.8Y0.2Cu2O8+Z,85.0
Tl2Ba2Ca0.75Y0.25Cu2O8+Z,73.2
Tl2Ba2Ca0.7Y0.3Cu2O8+Z,73.2
Tl2Ba2Ca0.65Y0.35Cu2O8+Z,58.0
Tl2Ba2Ca0.6Y0.4Cu2O8+Z,45.0
Tl2Ba2Ca0.52Y0.48Cu2O8+Z,22.0
Nd1.86Ce0.14Cu1O4-Z,21.7
Nd1.83Ce0.17Cu1O4-Z,23.3
Bi2Sr2Ca1Cu2O8+Z,70.8
Bi2Sr2Ca1Cu2O8+Z,85.8
Bi2Sr2Ca0.75Y0.25Cu2O8+Z,86.3
Bi2Sr2Ca0.65Y0.35Cu2O8+Z,79.6
Bi2Sr2Ca0.55Y0.45Cu2O8+Z,54.9
Bi1.75Pb0.25Sr2Ca2Cu3O10+Z,103.0
Bi1.7Pb0.3Sr2Ca2Cu3O10+Z,107.0
Bi1.66Pb0.34Sr2Ca2Cu3O10+Z,100.0
Bi1.65Pb0.35Sr2Ca2Cu3O10+Z,93.0
Er1Ba2Cu2.85Zn0.15O7,55.0
Er1Ba2Cu2.82Ni0.18O7,65.0
Eu1Ba2Cu4O8,67.0
Gd1Ba2Cu4O8,69.0
Dy1Ba2Cu4O8,71.0
Ho1Ba2Cu4O8,74.0
Y1Ba2Cu3O6.7,67.0
Bi2Sr2Cu1O6+Z,9.8
Bi2Sr1.9La0.1Cu1O6+Z,13.3
Bi2Sr1.8La0.2Cu1O6+Z,16.2
Bi2Sr1.7La0.3Cu1O6+Z,17.8
Bi2Sr1.6La0.4Cu1O6+Z,19.1
Bi1.9Pb0.1Sr1.9La0.1Cu1OY,16.0
Bi1.8Pb0.2Sr1.8La0.2Cu1OY,21.0
Bi1.7Pb0.3Sr1.7La0.3Cu1OY,23.0
Bi1.6Pb0.4Sr1.6La0.4Cu1OY,26.0
Tl1Ba1.7La0.3Cu1O5-Y,42.0
Tl1Ba1.6La0.4Cu1O5-Y,39.1
Tl1Ba1.5La0.5Cu1O5-Y,33.3
Tl1Ba1.4La0.6Cu1O5-Y,23.5
Sm1.85Ce0.15Cu1O4-Y,11.4
Bi1.76Pb0.24Sr2Ca2Cu3OZ,108.5
Y1Ba2Cu3O7-Z,90.4
Bi2Sr2Ca1Cu2Oz,85.0
Tl1Ba2Ca0.8Nd0.2Cu2O6.86,100.0
Tl1Ba2Ca0.5Nd0.5Cu2O6.86,40.0
La1.85Ce0.15Cu0.9Ag0.1O4-Z,22.0
La1.85Ce0.15Cu0.8Ag0.2O4-Z,16.5
La1.85Ce0.15Cu0.7Ag0.3O4-Z,17.2
La1.85Ce0.15Cu0.6Ag0.4O4-Z,19.0
La1.85Ce0.15Cu0.55Ag0.45O4-Z,17.1
La1.85Ce0.15Cu0.5Ag0.5O4-Z,15.2
La1.85Ce0.15Cu0.4Ag0.6O4-Z,11.1
Tl1Ba1.2La0.8Cu1O5-Z,35.9
Nd1.85Ce0.15Cu1O3.97,20.0
La1.85Ca0.989Sr0.161Cu2O5.93,13.0
La1.83Ca1.006Sr0.164Cu2O6.08,14.1
La1.8Ca1.032Sr0.168Cu2O6.08,15.0
Y1Ba2Cu2.94Fe0.06O6.85,85.0
Y1Ba2Cu2.91Fe0.09O6.83,60.0
Y1Ba2Cu2.85Fe0.15O7.02,76.0
Y1Ba2Cu2.76Fe0.24O7-Z,49.0
Bi2Sr2Ca3Cu4OZ,110.9
Bi2Sr2Cu1O6,8.9
Bi2Sr2Cu1O6,8.0
Bi1.8Pb0.2Sr1.8Ca1Nd0.2Cu2O8.2,86.0
Bi1.8Pb0.2Sr2Ca0.8Nd0.2Cu2O8.21,87.0
Bi1.6Pb0.4Sr1.6Ca1Nd0.4Cu2O8.17,79.0
Bi1.6Pb0.4Sr2Ca0.6Nd0.4Cu2O8.26,85.0
Bi1.4Pb0.6Sr1.4Ca1Nd0.6Cu2O8.22,25.0
Bi1.4Pb0.6Sr2Ca0.4Nd0.6Cu2O8.24,65.0
Bi2Sr1.6La0.4Cu1O6.26,14.3
Bi1.8Pb0.2Sr1.6La0.4Cu1O6.182,13.7
Bi1.7Pb0.3Sr1.6La0.4Cu1O6.141,20.2
Bi1.6Pb0.4Sr1.6La0.4Cu1O6.082,23.0
Bi1.5Pb0.5Sr1.6La0.4Cu1O6.055,28.4
Bi1.4Pb0.6Sr1.6La0.4Cu1O6.068,28.0
Bi1.2Pb0.8Sr1.6La0.4Cu1O6.014,17.3
Bi1Pb1Sr1.6La0.4Cu1O6.065,19.8
Bi1.5Pb0.5Sr1.8La0.2Cu1O5.983,9.2
Bi1.5Pb0.5Sr1.7La0.3Cu1O5.993,15.6
Bi1.5Pb0.5Sr1.6La0.4Cu1O6.044,28.1
Bi1.5Pb0.5Sr1.5La0.5Cu1O6.074,18.1
Bi1.5Pb0.5Sr1.4La0.6Cu1O6.118,10.8
Ba0.6K0.4Bi1O3,32.0
La2Cu1O4,37.7
Nd1Ba2Cu3O7+Z,92.9
Nd1.1Ba1.9Cu3O7+Z,82.3
Nd1.2Ba1.8Cu3O7+Z,56.5
Nd1.3Ba1.7Cu3O7+Z,39.4
Nd1.4Ba1.6Cu3O7+Z,23.5
Y1Ba2Cu2.97Co0.03O7+Z,90.5
Y1Ba2Cu2.91Co0.09O7+Z,70.0
Y1Ba2Cu2.85Co0.15O7+Z,57.1
Y1Ba2Cu2.79Co0.21O7+Z,41.1
Y1Ba2Cu2.97Zn0.03O7-Z,80.2
Y1Ba2Cu2.91Zn0.09O7-Z,58.7
Y1Ba2Cu2.79Zn0.21O7-Z,21.0
Y1Ba2Cu2.925Zn0.075O7-Z,59.0
Y1Ba2Cu2.85Zn0.15O7-Z,49.0
Y1Ba2Cu2.775Zn0.225O7-Z,46.0
La2Cu1O4,28.0
Tl1Ba1Ca3Cu3OZ,123.0
Tl1.8Ba2Ca2.2Cu3OZ,120.0
Tl2Ba2Ca2Cu3OZ,120.0
Y1Ba2Cu3O9-Z,92.0
Tl1Sr2Sr0.5Y0.5Cu2O7-Z,83.5
Tl1Sr2Sr0.5La0.5Cu2O7-Z,90.0
Tl1Sr2Sr0.5Pr0.5Cu2O7-Z,84.5
Tl1Sr2Sr0.5Nd0.5Cu2O7-Z,86.0
Tl1Sr2Sr0.5Sm0.5Cu2O7-Z,75.0
Tl1Sr2Sr0.5Eu0.5Cu2O7-Z,71.0
Tl1Sr2Sr0.5Gd0.5Cu2O7-Z,83.5
Tl1Sr2Sr0.5Tb0.5Cu2O7-Z,82.5
Tl1Sr2Sr0.5Dy0.5Cu2O7-Z,82.0
Tl1Sr2Sr0.5Ho0.5Cu2O7-Z,83.5
Tl1Sr2Sr0.5Er0.5Cu2O7-Z,83.5
Tl1Sr2Sr0.5Tm0.5Cu2O7-Z,84.5
Tl1Sr2Sr0.5Yb0.5Cu2O7-Z,81.5
Tl2Sr2Sr0.5Lu0.5Cu2O7-Z,81.5
Bi1.6Pb0.4Sr1.8Ca1Nd0.2Cu2O8.11,87.0
Bi1.6Pb0.4Sr2Ca0.8Nd0.2Cu2O8.16,87.0
Bi1.4Pb0.6Sr1.8Ca1Nd0.2Cu2O8+Z,84.0
Bi1.4Pb0.6Sr2Ca0.8Nd0.2Cu2O8+Z,87.0
Bi1.4Pb0.6Sr1.6Ca1Nd0.4Cu2O8+Z,62.0
Bi2.4Pb0.6Sr2Ca0.6Nd0.4Cu2O8+Z,77.0
Sr0.95Nd0.05Cu1O2,38.0
Sr0.86Nd0.14Cu1O2,35.0
Sr0.84Nd0.16Cu1O2,40.0
Sr0.85Pr0.15Cu1O2,39.0
Pb2Sr2Y0.5Ca0.5Cu3O8+Z,75.0
Y0.8Pr0.2Ba2Cu3O7-Z,71.0
Y0.75Pr0.2Ca0.05Ba2Cu3O7-Z,73.6
Y0.7Pr0.2Ca0.1Ba2Cu3O7-Z,77.8
Y0.6Pr0.2Ca0.2Ba2Cu3O7-Z,71.2
Y0.8Pr0.2Ba2Cu3O7-Z,75.6
Y0.7Pr0.3Ba2Cu3O7-Z,60.4
Y0.6Pr0.4Ba2Cu3O7-Z,46.2
Y0.5Pr0.5Ba2Cu3O7-Z,30.6
Y0.7Pr0.3Ba2Cu3O7-Z,60.0
Li1Ti1O4,12.15
Pb1Sr0.8Ba1.2Y0.7Ca0.3Cu3O8.41,42.0
Pb1Sr0.8Ba1.2Y0.7Ca0.3Cu3O7+Z,78.0
Pb0.5Sr2Y0.6Ca0.4Cu2.5O6.97,67.0
Pb0.8Sr1Ba1.2Y0.7Ca0.3Cu3O7.59,40.0
Pb0.8Sr1Ba1.2Y0.7Ca0.3Cu3O8.28,74.0
Pb0.8Sr1Ba1.2Y0.7Ca0.3Cu3O8.35,77.0
Pb0.8Sr0.8Ba1.2Y0.7Ca0.3Cu3.2O8.3,75.0
Y1Ba2Cu3O9-Z,93.0
La1.9Ba0.1Cu0.99Ga0.01O4,14.3
La1.88Ba0.12Cu0.99Ga0.01O4,8.2
La1.87Ba0.13Cu0.99Ga0.01O4,4.5
La1.84Ba0.16Cu0.99Ga0.01O4,8.3
La1.82Ba0.18Cu0.99Ga0.01O4,8.6
La1.9Ba0.1Cu0.99Zn0.01O4,9.8
La1.84Ba0.16Cu0.99Zn0.01O4,12.4
La1.82Ba0.18Cu0.99Zn0.01O4,13.9
La1.7Ba0.3Cu0.99Zn0.01O4,5.0
La1.94Ba0.06Cu1O4,10.2
Y1Ba2Cu2.7Ga0.3O6.93,75.0
Y1Ba2Cu2.88Zn0.12O6.92,53.0
Tl0.8Pb0.2Sr2.5Pr0.5Cu2OZ,90.0
Tl2Ba2Cu1O6-X,81.5
La1.93Ba0.07Cu1O4,19.0
La1.922Ba0.078Cu1O4,22.9
La1.903Ba0.097Cu1O4,26.0
La1.892Ba0.108Cu1O4,22.1
La1.88Ba0.12Cu1O4,9.5
La1.87Ba0.13Cu1O4,9.7
La1.86Ba0.14Cu1O4,13.3
La1.843Ba0.157Cu1O4,25.3
La1.823Ba0.177Cu1O4,25.5
La1.801Ba0.199Cu1O4,23.5
La1.782Ba0.218Cu1O4,21.6
La1.751Ba0.249Cu1O4,13.7
La1.7Ba0.3Cu1O4,9.7
La1.65Ba0.35Cu1O4,4.2
La1.6Ba0.4Cu1O4,4.2
La1.9Ba0.1Cu0.99Ni0.01O4,17.0
La1.882Ba0.118Cu0.99Ni0.01O4,12.7
La1.869Ba0.131Cu0.99Ni0.01O4,7.0
La1.86Ba0.14Cu0.99Ni0.01O4,11.0
La1.842Ba0.158Cu0.99Ni0.01O4,19.0
La1.822Ba0.178Cu0.99Ni0.01O4,18.2
Ba2Cu3O7,92.0
Y1Ba2Cu3H0.13O7,93.5
Y1Ba2Cu3H0.19O7,93.5
Y1Ba2Cu3H0.38O7,93.8
Y1Ba2Cu3H0.49O7,93.6
Tl1Ba2Cu1O5-Z,15.0
Tl1Ba1.8La0.2Cu1O5-Z,42.0
Tl1Ba1.6La0.4Cu1O5-Z,40.0
Tl1Ba1.4La0.6Cu1O5-Z,45.0
Sr2Y0.7Ca0.3Cu2.35Pb0.65O6.89,17.0
Ba1Pb0.75Bi0.25O3,10.5
Bi2Sr1.9Pb0.1Cu1O6+Z,8.0
Pr1.85Ce0.15Cu1O4-Y,11.0
Pr1.85Ce0.15Cu1O4-Y,16.5
Pr1.85Ce0.15Cu1O4-Y,16.0
Tl1Ba2Ca1Cu2O8,107.995
Tl1Ba2Ca1Cu2O8,104.95
Bi2Sr2Ca1Cu2O8,60.0
Bi2Sr2Ca1Cu2O8,71.5
Tl2Ca2Ba2Cu3O10,118.0
Pr1Tl2Sr2Ca4Cu5O2,88.0
Pr2Sr0.8La1.2Cu2O6+Z,31.0
Bi1.7Pb0.3Sr2Ca2Cu3OX,110.0
Bi1.3Pb0.7Sr2Ca2Cu3OX,116.0
Bi1.7Pb0.2Sb0.1Sr2Ca2Cu3OX,110.5
Bi1.3Pb0.5Sb0.2Sr2Ca2Cu3OX,92.5
Bi1.7Pb0.2V0.1Sr2Ca2Cu3OX,110.0
Bi1.3Pb0.5V0.2Sr2Ca2Cu3OX,111.5
Bi1.7Pb0.2Mo0.1Sr2Ca2Cu3OX,110.0
Bi1.3Pb0.5Mo0.2Sr2Ca2Cu3OX,113.5
Bi1.7Pb0.2W0.1Sr2Ca2Cu3OX,103.0
Bi1.3Pb0.5W0.2Sr2Ca2Cu3OX,94.5
Nd1.85Ce0.15Cu1O4-Y,16.5
Eu2.667Ce1.333La1.333Ba1.333Sr1.333Cu6OY,28.5
Nd1.4Ce0.2Sr0.4Cu1O4-Z,23.1
Y1Ba2Cu3O7-Z,66.0
Y0.8Ca0.2Ba2Cu3O6.1,50.0
Sb1Pb1Ca1Ba2Cu2OX,25.0
Y1Ba2Cu2W1OY,60.0
Y1Ba2Cu2W1OY,78.5
La1Ca1Ba1Cu2.95Zn0.05O7-Z,55.0
La1Ca1Ba1Cu2.9Zn0.1O7-Z,37.0
La1Ca1Ba1Cu2.8Zn0.2O7-Z,30.0
La1Ca1Ba1Cu2.7Zn0.3O7-Z,20.0
La1Ba1Ca1Cu3O6.856,66.0
La1Ba1Ca1Cu2.9Ni0.1O6.85,45.0
La1Ba1Ca1Cu2.8Ni0.2O6.837,30.0
La1Ba1Ca1Cu2.7Ni0.3O6.848,28.0
La1Ba1Ca1Cu2.6Ni0.4O6.854,24.0
Tl2Ba2Ca2Cu3O10,121.0
La1.906Ba0.094Cu1O4-Z,32.0
La1.882Ba0.118Cu1O4-Z,9.2
La1.858Ba0.142Cu1O4-Z,28.9
La1.922Ba0.078Cu1O4-Z,26.6
La1.8Ba0.2Cu1O4-Z,20.9
La1.76Ba0.24Cu1O4-Z,14.0
Nd1.42Ce0.18Sr0.4Cu1O4-Z,17.3
Nd1.4Ce0.2Sr0.4Cu1O4-Z,22.7
Nd1.38Ce0.22Sr0.4Cu1O4-Z,18.2
Bi2Ca2.5Pr0.5Cu2O8.53,45.0
Bi2Ca2.5Nd0.5Cu2O8.43,33.5
Bi2Ca2.5Sm0.5Cu2O8.33,22.0
Bi2Ca2.5Eu0.5Cu2O8.31,7.0
Bi2Ca2.5Gd0.5Cu2O8.33,4.0
Bi2Sr1.8Li0.2Ca1Cu2O8,77.0
Bi2Sr1.6Li0.4Ca1Cu2O7.87,86.0
Bi2Sr1.4Li0.6Ca1Cu2O7.7,94.0
Bi1.4Pb0.6Sr2Ca2Cu3O7,108.5
Bi1.4Pb0.6Sr2Ca1.9Ga0.1Cu3O7,104.4
Bi1.4Pb0.6Sr2Ca1.8Ga0.2Cu3O7,68.2
Bi1.4Pb0.6Sr2Ca1.7Ga0.3Cu3O7,67.4
Bi1.4Pb0.6Sr2Ca1.6Ga0.4Cu3O7,69.4
Bi1.4Pb0.6Sr2Ca1.4Ga0.6Cu3O7,70.6
Bi1.4Pb0.6Sr2Ca1.2Ga0.8Cu3O7,67.7
Bi1.4Pb0.6Sr2Ca1Ga1Cu3O7,66.5
Bi1.4Pb0.6Sr2Ga2Cu3O7,62.7
La1.875Ba0.125Cu1O4,4.4
La1.875Ba0.1Sr0.025Cu1O4,6.0
La1.875Ba0.075Sr0.05Cu1O4,8.0
La1.875Ba0.05Sr0.075Cu1O4,17.0
La1.875Ba0.025Sr0.1Cu1O4,29.1
La1.875Sr0.125Cu1O4,30.0
Yb0.7Ca0.3Ba1.6Sr0.4Cu3O6.78,44.6
Yb0.7Ca0.3Ba1.6Sr0.4Cu3O6.73,67.6
Yb0.7Ca0.3Ba1.6Sr0.4Cu3O6.56,80.3
Yb0.7Ca0.3Ba1.6Sr0.4Cu3O6.43,66.3
La2Cu1O4,37.0
Y1Ba2Cu3O6.6,56.5
Y1Ba2Cu3O7,90.2
Y1Ba2Cu3O6.95,90.9
Y1Ba2Cu3O6.9,91.6
Y1Ba2Cu3O6.82,86.7
Y1Ba2Cu3O6.7,63.9
Bi1.7Pb0.3Sb0.05Sr2Ca2Cu3OZ,106.2
Bi1.7Pb0.3Sb0.05Sr2Ca2Cu3OZ,105.8
Bi1.7Pb0.3Sb0.1Sr2Ca2Cu3OZ,106.3
C60Rb3,29.8
C60K3,12.8
C60Rb3,28.0
C60Rb3,12.25
C60K3,8.5
Cs3C60,29.5
Cs2Rb1C60,33.0
Cs1Rb2C60,31.0
Rb3C60C60,29.0
C60Rb2,29.0
C60Rb4,29.0
C60K3,19.3
C60K3,13.0
C60K3,18.0
Tl2Ba2Ca1Cu2O8,112.1
Tl2Ba2Ca1Cu2O8,107.2
Tl2Ba2Ca1Cu2O8,106.7
Tl2Ba2Ca1Cu2O8,114.1
La1.87Sr0.125Cu1.07O4,26.4
La1.88Sr0.125Cu0.97O4,28.4
Nd2Cu1F0.2O3.8,27.0
Nd2Cu1F0.3O3.7,27.0
Nd2Cu1F0.4O3.6,18.5
Nd2Cu1F0.5O3.5,17.5
Pb0.65Sr2Y0.7Ca0.3Cu2.35OZ,20.0
Pb0.675Sr2Y0.65Ca0.35Cu2.325OZ,40.0
Bi2La0.5Ca2.5Cu2OZ,43.5
Bi2Pr0.5Ca2.5Cu2OZ,47.0
Bi2Nd0.5Ca2.5Cu2OZ,43.5
Bi2Sm0.5Ca2.5Cu2OZ,36.5
Bi2Eu0.5Ca2.5Cu2OZ,31.5
Bi2Gd0.5Ca2.5Cu2OZ,28.5
Bi2La0.25Pr0.25Ca2.5Cu2OZ,53.5
Bi2La0.25Nd0.25Ca2.5Cu2OZ,51.0
Bi2La0.25Sm0.25Ca2.5Cu2OZ,47.5
Bi2La0.25Eu0.25Ca2.5Cu2OZ,46.5
Bi2La0.25Gd0.25Ca2.5Cu2OZ,49.0
Bi2.15Sr1.85Cu1O5.4+Z,6.0
Y1Ba2Cu3O6.92,92.0
Pb0.75Sr2Ca0.5Y0.5Cu2.25O7-Z,45.0
In0.2Pb0.55Sr2Ca0.5Y0.5Cu2.25O7-Z,60.0
Gd1Ba2Cu3O7-Z,91.2
Bi2Sr2Ca1Cu2O8,88.5
Bi2Sr2Ca0.8Pr0.2Cu2O8,73.0
Bi2Sr2Ca0.7Pr0.3Cu2O8,61.0
Bi2Sr2Ca0.6Pr0.4Cu2O8,41.0
Bi2Sr2Ca1Cu2O8,81.0
Bi2Sr2Ca0.9Gd0.1Cu2O8,80.0
Bi2Sr2Ca0.8Gd0.2Cu2O8,73.0
Bi2Sr2Ca0.7Gd0.3Cu2O8,48.0
Bi2Sr2Ca0.6Gd0.4Cu2O8,30.0
Bi2Sr2Ca0.9Y0.1Cu2O8,77.0
Bi2Sr2Ca0.8Y0.2Cu2O8,70.0
Bi2Sr2Ca0.7Y0.3Cu2O8,48.0
Bi2Sr2Ca0.6Y0.4Cu2O8,37.0
Bi2Sr2Ca0.5Y0.5Cu2O8,22.0
Bi2Sr2Ca0.4Y0.6Cu2O8,9.0
Y1Ba2Cu2.95Li0.05OZ,82.0
Y1Ba2Cu2.9Li0.1OZ,78.0
Y1Ba2Cu2.98Li0.2OZ,77.0
Y1BaNa0.05Cu3OZ,84.0
Y1BaNa0.1Cu3OZ,84.0
Y1BaNa0.2Cu3OZ,84.0
Y1Ba1.95K0.05Cu3OZ,86.0
Y1Ba1.9K0.1Cu3OZ,86.0
Y1Ba1.8K0.2Cu3OZ,86.0
Bi2Sr1.8Ca1.2Cu2O8,68.4
Bi1.8Ga0.2Sr1.8Ca1.2Cu2O8,56.5
Bi1.5Ga0.5Sr1.8Ca1.2Cu2O8,41.0
Bi1Ga1Sr1.8Ca1.2Cu2O8,24.8
Bi2Sr2Ca1Cu2OZ,77.8
Bi2Sr2Ca2Cu3OZ,106.5
Y1Ba2Cu4O8,79.2
Pb2Sr2Eu1Cu3O8,71.0
Pb2Sr2Dy1Cu3O8,76.5
Pb2Sr2Y1Cu3O8,75.5
Tl2Ba2Ca2Cu3OX,120.0
Bi2Sr1.5Ca1.5Cu2OX,95.0
Tl2Ba2Ca2Cu3O9.83,114.0
Tl1.8Ba2Ca2.2Cu3O9.92,112.0
Tl1.7Ba2Ca2.3Cu3O9.82,116.0
Tl1.6Ba2Ca2.4Cu3O9.67,118.0
Tl1.4Ba2Ca2.6Cu3O9.53,118.0
Y1Ba2Cu4Li0.016O8,77.0
Y1Ba2Cu4Li0.031O8,72.0
Y1Ba2Cu4Li0.062O8,64.0
Y1Ba2Cu4Li0.125O8,58.0
Y1Ba2Cu4Li0.25O8,58.0
Sr0.84Nd0.16Cu1O2,24.0
Tl2Ba2Cu1O6+Z,87.0
Tl2Ba2Cu1O6+Z,82.0
Tl2Ba2Cu1O6+Z,61.0
Tl2Ba2Cu1O6+Z,51.0
Tl2Ba2Cu1O6+Z,49.0
Tl2Ba2Cu1O6+Z,20.0
Tl2Ba2Cu1O6+Z,16.0
Tl2Ba2Cu1O6+Z,117.0
Y1Ba2Cu3O6.99,92.3
Y1Ba1.9La0.1Cu3O7.06,91.9
Y1Ba1.8La0.2Cu3O7.05,77.3
Y1Ba1.7La0.3Cu3OZ,73.0
Y1Ba1.6La0.4Cu3O7.11,49.3
Y1Ba1.5La0.5Cu3O7.19,38.3
Y1Ba1.7La0.3Cu3O7.1,60.0
Pb0.5Sr2Ca0.5Nd0.5Cu2.5O7,60.0
Pb0.5Sr2Ca0.5Sm0.5Cu2.5O7,62.0
Pb0.5Sr2Ca0.5Eu0.5Cu2.5O7,60.0
Pb0.5Sr2Ca0.5Gd0.5Cu2.5O7,60.0
Pb0.5Sr2Ca0.5Dy0.5Cu2.5O7,65.9
Pb0.5Sr2Ca0.5Ho0.5Cu2.5O7,67.9
Pb0.5Sr2Ca0.5Er0.5Cu2.5O7,70.0
Pb0.5Sr2Ca0.5Tm0.5Cu2.5O7,72.0
Y1Ba2Cu4O8,72.9
Bi2Sr2Ca1Cu2O8+Z,84.9
Tl2Ba2Cu1O6+Z,47.0
La1.92Sr0.08Cu1O4,22.4
La1.88Sr0.12Cu1O4,31.0
La1.84Sr0.16Cu1O4,38.0
La1.8Sr0.2Cu1O4,32.6
La1.76Sr0.24Cu1O4,19.3
Gd1Ba2Cu2.9Ni0.1O7-Z,77.7
Gd1Ba2Cu2.8Ni0.2O7-Z,55.1
Gd1Ba2Cu2.7Ni0.3O7-Z,32.3
Gd1Ba2Cu2.9Fe0.1O7-Z,75.0
Gd1Ba2Cu2.8Fe0.2O7-Z,49.0
Gd1Ba2Cu2.7Fe0.3O7-Z,29.0
Gd1Ba2Cu2.9Co0.1O7-Z,76.0
Gd1Ba2Cu2.8Co0.2O7-Z,49.0
Gd1Ba2Cu2.7Co0.3O7-Z,13.0
Nd2Cu1F0.3O3.7,18.5
Y0.975Ca0.025Ba2Cu2.975Al0.025O6.89,94.5
Y0.95Ca0.05Ba2Cu2.95Al0.05O6.88,92.0
Y0.9Ca0.1Ba2Cu2.9Al0.1O6.88,91.1
Y0.85Ca0.15Ba2Cu2.85Al0.15O6.87,90.5
Y0.8Ca0.2Ba2Cu2.8Al0.2O6.88,89.1
Y0.75Ca0.25Ba2Cu2.75Al0.25O6.86,88.2
Bi2.2Sr1.8Ca1.05Cu2.15O8+Z,82.0
Bi2.2Sr1.8Ca1.05Cu2.05Na0.1O8+Z,86.0
Bi2.2Sr1.8Ca1.05Cu1.95Na0.2O8+Z,87.0
Bi2.2Sr1.8Ca1.05Cu1.85Na0.3O8+Z,88.0
Bi2.2Sr1.8Ca1.05Cu1.75Na0.4O8+Z,89.0
Bi2.2Sr1.8Ca1.05Cu1.65Na0.5O8+Z,90.0
Bi2.2Sr1.8Ca1.05Cu1.55Na0.6O8+Z,91.0
Bi2.2Sr1.8Ca1.05Cu1.45Na0.7O8+Z,90.0
Bi2.2Sr1.8Ca1.05Cu1.25Na0.9O8+Z,86.0
Y1Ba2Cu3O6.99,91.4
Y0.8Ca0.1Pr0.1Ba2Cu3O7.01,78.4
Y0.6Ca0.2Pr0.2Ba2Cu3O7,67.1
Y0.4Ca0.3Pr0.3Ba2Cu3O7.02,53.6
Y0.2Ca0.4Pr0.4Ba2Cu3O7,36.5
Bi2Sr2Ca1Cu2O8.28,76.0
Bi2Sr2Ca0.8Y0.2Cu2O8.34,86.0
Bi2Sr2Ca0.6Y0.4Cu2O8.36,76.0
Bi2Sr2Ca0.5Y0.5Cu2O8.39,66.0
Bi2Sr2Ca1Cu2O8.15,87.0
Bi2Sr2Ca0.5Y0.5Cu2O8.36,18.0
Ba0.63K0.37Bi1O3,29.1
Ba0.63K0.37Bi1O3,30.0
Bi4Sr3.5Ca2.5Cu4Sn0.015O16-Y,77.0
Bi4Sr3.5Ca2.5Cu4O16-Y,80.0
Y0.9Pr0.1Ba2Cu3O7-Z,86.0
Y0.8Pr0.2Ba2Cu3O7-Z,73.0
Y0.72Pr0.28Ba2Cu3O7-Z,60.0
Y0.56Pr0.44Ba2Cu3O7-Z,36.0
Y0.44Pr0.56Ba2Cu3O7-Z,11.0
Bi2Sr2Ca1Cu2O8,93.0
I1Bi2Sr2Ca1Cu2OZ,81.5
I1Bi4Sr4Ca2Cu4OZ,86.0
Y1Ba2Cu3OZ,92.8
Y0.8Pr0.2Ba2Cu3OZ,71.3
Y0.7Pr0.3Ba2Cu3OZ,58.4
Y0.6Pr0.4Ba2Cu3OZ,43.3
Y0.5Pr0.5Ba2Cu3OZ,21.9
Er1Ba2Cu3OZ,92.4
Er0.9Pr0.1Ba2Cu3OZ,84.1
Er0.8Pr0.2Ba2Cu3OZ,73.7
Er0.7Pr0.3Ba2Cu3OZ,66.7
Er0.6Pr0.4Ba2Cu3OZ,55.0
Er0.5Pr0.5Ba2Cu3OZ,24.8
Gd1Ba2Cu3OZ,92.8
Gd0.95Pr0.05Ba2Cu3OZ,79.0
Gd0.9Pr0.1Ba2Cu3OZ,69.0
Gd0.8Pr0.2Ba2Cu3OZ,43.4
Gd0.6Pr0.4Ba2Cu3OZ,18.0
Sm1Ba2Cu3OZ,92.0
Sm0.95Pr0.05Ba2Cu3OZ,65.8
Sm0.9Pr0.1Ba2Cu3OZ,58.3
Sm0.8Pr0.2Ba2Cu3OZ,39.0
Sm0.7Pr0.3Ba2Cu3OZ,31.1
Gd1Nd0.85Ce0.15Cu1O4,5.9
Gd0.75Nd1.1Ce0.15Cu1O4,10.1
Gd0.5Nd1.35Ce0.15Cu1O4,14.3
Gd0.2Nd1.65Ce0.15Cu1O4,18.5
Nd1.85Ce0.15Cu1O4,20.0
Nd1.75Y0.1Ce0.15Cu1O4,21.0
Nd1.65Y0.2Ce0.15Cu1O4,17.3
Nd1.75La0.1Ce0.15Cu1O4,20.0
Nd1.65La0.2Ce0.15Cu1O4,21.2
Nd1.55La0.3Ce0.15Cu1O4,21.5
Nd1.35La0.5Ce0.15Cu1O4,19.1
Nd1.15La0.7Ce0.15Cu1O4,19.0
Nd0.95La0.9Ce0.15Cu1O4,18.4
Nd0.65La1.2Ce0.15Cu1O4,5.8
Tb0.7Pr0.3Ba2Cu3OZ,50.0
Tb0.6Pr0.4Ba2Cu3OZ,43.0
Tb0.5Pr0.5Ba2Cu3OZ,30.0