composition,critical_temperature_tc
Nb1Se1.5Te0.5,3.35
Ge1.67Y1Ge2,3.9
La1Bi1S2F0.5O0.5,2.2
Pr1Bi1S2F0.5O0.5,3.4
Nd1Bi1S2F0.5O0.5,4.8
La0.9Sr0.1Fe1As0.8P0.3O1,6.72
La0.9Sr0.1Fe1As0.8P0.4O1,11.14
La0.9Sr0.1Fe1As0.8P0.5O1,6.38
La0.9Sr0.1Fe1As0.8P0.7O1,5.04
La0.9Sr0.1Fe1As0.8P0.8O1,13.88
La0.9Sr0.1Fe1P1O1,6.195
La1Fe1As1F0.14O0.86,11.9
La1Fe1As0.8P0.2F0.14O0.86,11.1
La1Fe1As0.7P0.3F0.14O0.86,12.9
La1Fe1As0.6P0.4F0.14O0.86,26.1
La1Fe1As0.5P0.5F0.14O0.86,26.1
La1Fe1As0.4P0.6F0.14O0.86,21.1
La1Fe1As0.2P0.8F0.14O0.86,10.1
La1Fe1P1F0.14O0.86,2.98
La1Fe1As1H0.25O0.75,15.4
La1Fe1As0.9P0.1H0.25O0.75,7.6
La1Fe1As1H0.3O0.3,35.0
La1Fe1As0.9P0.1H0.3O0.3,20.0
Th1Fe1As1,29.0
Li0.88Fe1.12Se1H1O1,40.0
La1Bi1S1Se1F0.5O0.5,4.1
Th1Fe1As1N1,30.0
Li0.1Rb1Ca2Nb3O10,5.0
Li0.1K1Ca2Nb3O10,5.0
Eu3Bi2S4F4,1.5
Eu2.5Sr0.5Bi2S4F4,0.87
Eu2Sr1Bi2S4F4,0.48
Ba2Ti2Fe2As4O1,21.0
Ba2Ti2Fe1.92Cr0.08As4O1,8.16
Tl1Ni2Se2,3.69
Tl1Ni2Se1.8S0.2,2.83
Tl1Ni2Se1.6S0.4,2.65
Tl1Ni2Se1.4S0.6,2.2
Tl1Ni2Se1.2S0.8,2.16
Tl1Ni2Se1S1,1.96
Tl1Ni2Se0.8S1.2,2.03
Tl1Ni2Se0.6S1.4,1.98
Tl1Ni2Se0.4S1.6,1.99
Tl1Ni2Se0.2S1.8,2.09
Tl1Ni2S2,2.3
Bi2K1,3.517
Pr1Ti2Al20,0.2
Pr1Ti2Al20,0.14
Ce1Rh1In5,2.124
Ce1Rh1In5,2.258
Ce1Rh1In5,2.207
Ce1Rh1In5,2.21
Ce1Rh1In5,1.82
Ce1Rh1In5,1.16
Bi3S3O2,5.32
Bi2.95La0.05S3O2,4.44
Bi2.95Y0.05S3O2,4.93
La1Ti2Al20,0.3
La1V2Al20,0.15
La1Nb2Al20,1.15
La1Ta2Al20,1.1
Ce1Ir3,3.4
Li0.25M1Mo1Se2,4.2
Li0.5M1Mo1Se2,4.2
Li1M1Mo1Se2,4.2
Li0.25M1Mo1Se2,3.8
Li1M1Mo1Se2,6.0
Fe1.07Te0.88S0.12,8.4
Ba1Pt1Sb1,1.64
Ba1Pt1As1,2.8
Ba1Pt1As1,2.895
Ba1Pt1As1,2.195
Ru0.75Rh0.25As1,1.8
Ru0.6Rh0.4As1,1.8
Ce1Co1Si3,1.4
Cu0.04Pd1Te2,2.4
Ce1Ag2Si2,1.41
Be13Th1,0.135
Be13Lu1,0.62
Th1Pd2Ge2,0.62
Y1Pd2Ge2,1.14
Cd2Re2O7,0.99
Ba1Nb2S5,1.09
Ba1Nb2S5,0.95
Ca4Al2Fe2As2O6,26.8
Ca4Al2Fe2As1.6P0.4O6,22.5
Ca4Al2Fe2P2O6,16.6
Ga41Mo6V2,8.7
Ga5Re1,2.1
Ce1Ir1Si3,1.52
Ce1Rh1Si3,0.92
Ba1Pd2As2,3.5
Sn0.1Bi1.1Sb0.9Te2S1,4.31
Sn0.1Bi1.1Sb0.9Te2S1,9.62
Ga1,1.08
Ga1,6.04
Re6Zr1,6.8
Na1Fe1As1,8.64
Na1Fe1Ni0.004As1,8.42
Na1Fe1Ni0.006As1,12.6
Na1Fe1Ni0.008As1,17.4
Na1Fe1Ni0.01As1,17.8
Na1Fe1Ni0.013As1,17.7
Na1Fe1Ni0.015As1,18.6
Tb1Pd1Bi1,1.64
Ce0.95Sm0.05Co1In5,1.78
Ce0.9Sm0.1Co1In5,1.44
Ce0.85Sm0.15Co1In5,0.59
Ta1Rh2B2,6.0
Na1Sn2As2,1.18
Sc5Rh6Sn18,4.4
Ce1Co1In4.95Hg0.05,1.73
Ce1Co1In4.935Hg0.065,1.37
Ce1Co1In4.9625Hg0.0375,2.19
Y5Rh6Sn18,3.0
Ba1Fe1.52Ru0.48As2,17.8
Ce0.2Nd0.8F0.5Bi1S2O0.5,4.48
La1F0.5Bi1S2O0.5,2.48
La1F0.5Bi1S1.8Se0.2O0.5,2.18
La1F0.5Bi1S1.6Se0.4O0.5,2.48
La1F0.5Bi1S1.4Se0.6O0.5,2.99
La1F0.5Bi1S1.2Se0.8O0.5,3.69
La1F0.5Bi1S1Se1O0.5,3.79
La1F0.5Bi1S0.8Se1.2O0.5,3.59
La1F0.5Bi1Se2O0.5,3.59
Sm0.05La0.95Ni1C2,1.8
Sm0.03La0.97Ni1C2,1.8
Sm0.02La0.98Ni1C2,2.0
La1Ni1C2,3.4
Na0.926Sn2P2,1.95
Ce1Ir1Si3,1.56
Ce1Ir1Si3,1.5
La1Ir1Si3,0.9
Sr3Rh4Sn13,4.18
Ca1.5Sr1.5Rh4Sn13,6.41
Ca2.25Sr0.75Rh4Sn13,7.32
Ca2.55Sr0.45Rh4Sn13,7.6
Eu1Rb1Fe4As4,36.375
La0.94Th0.06Ru2,3.44
La0.9Th0.1Ru2,2.62
La0.47Th0.53Ru2,1.73
La0.3Th0.7Ru2,3.61
Ru2Th1,3.4
Ce0.93Th0.07Ru2,5.6
Ce0.7Th0.3Ru2,4.89
Ce0.6Th0.4Ru2,4.5
Ce0.3Th0.7Ru2,4.12
Ru2Th1,3.5
Ir3Th1,2.47
La0.9Th0.1Ir3,3.18
La0.6Th0.4Ir3,3.63
La0.4Th0.6Ir3,4.03
La0.2Th0.8Ir3,4.48
Ir3Th1,4.99
La0.9Ce0.1Ir3,2.82
La0.71Ce0.29Ir3,3.08
La0.39Ce0.61Ir3,2.74
La0.2Ce0.8Ir3,2.79
Ir3Th1,3.05
Ce0.52Th0.48Ir3,3.83
Ce0.32Th0.68Ir3,4.22
Ba1Fe1.86Co0.14As2,22.5
Ba1Fe1.86Co0.14As2,22.3
Ba1Fe1.86Co0.14As2,22.0
Ba1Fe1.91Ni0.09As2,18.9
Ba1Fe1.91Ni0.09As2,18.27
Ba1Fe1.91Ni0.09As2,17.86
Ce1Co1Ge3,0.65
Y4Lu1Rh6Sn18,3.58
Y3Lu2Rh6Sn18,3.75
Y1Lu4Rh6Sn18,3.93
Ta2Pd0.97S5,5.91
Ta2Pd0.92S5,5.4
La2Bi3Ag1S6O2,0.5
La1.8Eu0.2Cu1O3.5,20.0
La1.8Eu0.2Cu0.995Ni0.005O3.5,17.0
La1.8Eu0.2Cu0.99Ni0.01O3.5,15.0
La1.8Eu0.2Cu0.995Zn0.005O3.5,16.0
La1.8Eu0.2Cu0.99Zn0.01O3.5,14.0
Sr2V1Fe1As1O2.75,20.0
Ca1M1Mo1Se2,6.0
Sr1M1Mo1Se2,6.4
Ba1M1Mo1Se2,7.2
Na0.3Mo1S2,3.6
Ca0.05Mo1S2,4.0
Sr0.06Mo1S2,5.6
K0.4Mo1S2,6.9
Rb0.3Mo1S2,6.9
Cs0.3Mo1S2,6.9
K0.6Mo1S2,2.8
K1Mo1S2,4.6
Ce0.95Yb0.05Co1In5,2.14
Ce0.8Yb0.2Co1In5,1.92
Ce0.6Yb0.4Co1In5,1.2
Ce1Co1Ge3,0.75
Ca1Fe1As1F1,25.7
Ca1Fe1As1F1,15.5
Rb1Eu1Fe4As4,26.6
As1Cr1,1.85
Pr0.95Eu0.05Pt4Ge12,7.41
Pr0.9Eu0.1Pt4Ge12,7.12
Pr0.85Eu0.15Pt4Ge12,6.45
Pr0.8Eu0.2Pt4Ge12,5.77
Pr0.5Eu0.5Pt4Ge12,2.09
Nd1Fe1As1F0.1O0.9,45.4
Lu0.04Zr0.96B12,4.09
Lu0.07Zr0.93B12,3.64
Lu0.17Zr0.83B12,3.41
Lu0.8Zr0.2B12,0.55
Ir0.8Rh0.2Te2,2.525
Rb1Eu1Fe4As4,36.8
Re3Ta1,4.65
Cr0.8Ru0.2,1.35
Eu1Rb1Fe4As4,36.5
Lu1Pt2In1,0.45
Lu1Pt1.6Pd0.4In1,0.42
Lu1Pt1.2Pd0.8In1,0.67
Lu1Pt0.96Pd1.04In1,1.0
Lu1Pt0.92Pd1.08In1,1.103
Lu1Pt0.88Pd1.12In1,1.109
Lu1Pt0.72Pd1.28In1,0.903
Lu1Pt0.6Pd1.4In1,0.822
Lu1Pt0.4Pd1.6In1,0.399
Ce1Co1In4.91Sn0.09,1.19
Ce1Co1In4.9095Sn0.0899Hg0.025,1.24
Ce1Co1In4.8488Sn0.0889Hg0.062,0.77
Ce1Co0.91Pt0.09In5,1.11
Ce1Co0.91Pt0.09In4.975Hg0.025,1.41
Ce1Co0.91Pt0.09In4.962Hg0.038,1.36
Ce1Co0.91Pt0.09In4.938Hg0.062,1.56
Ce1Co1In4.972Sn0.028,1.93
Ce1Co1In4.91Sn0.09,1.22
Ce1Co1In4.85Sn0.15,0.44
Ce1Co1In5,2.31
Ce1Co0.96Pt0.04In5,1.76
Ce1Co0.91Pt0.09In5,1.05
Ce1Co0.83Pt0.17In5,0.28
Ce1Co1In4.95Cd0.05,1.83
Ce1Co1In4.925Cd0.075,0.44
Ce0.98La0.02Co1In5,2.1
Ce0.98Nd0.02Co1In5,2.01
Ce0.985Yb0.015Co1In5,2.03
Yb1,1.04
Ta1Rh2B2,5.8
Nb1Rh2B2,7.6
Rb1Ca2Fe4As4F2,30.5
Cs1Ca2Fe4As4F2,28.2
Sr2.5Sn1O1,4.7
Sr2.5Sn1O1,5.4
Pd0.01Ta1S2,3.02
Pd0.02Ta1S2,3.95
Pd0.03Ta1S2,4.12
Pd0.05Ta1S2,3.89
Pd0.06Ta1S2,3.73
Pd0.08Ta1S2,3.0
Y1Co2Ge2,0.4
Y1Pd2Ge2,1.1
Y1Pt2Ge2,1.6
K2Mo3As3,10.25
La0.59Rh4P12,4.58
La0.69Rh4P12,8.07
La0.75Rh4P12,8.71
La0.81Rh4P12,9.81
La0.99Rh4P12,16.41
Zr0.96Lu0.04B12,5.47
Zr0.8Lu0.2B12,3.9
Zr0.993Lu0.007B12,5.81
Zr0.926Lu0.074B12,4.49
Rb1Cr3As3,6.2
Na1Sn2As2,1.54
Tl0.7Gd0.3Sr2Ca0.8Cr0.2Cu2O7,61.0
Tl0.7Er0.3Sr2Ca0.8Cr0.2Cu2O7,50.0
Tl0.7La0.3Sr2Ca0.8Cr0.2Cu2O7,50.0
Tl0.7Li0.3Sr2Ca0.8Cr0.2Cu2O7,92.0
Tl0.7Na0.3Sr2Ca0.8Cr0.2Cu2O7,93.0
Tl0.7K0.3Sr2Ca0.8Cr0.2Cu2O7,86.0
Tl0.7Rb0.3Sr2Ca0.8Cr0.2Cu2O7,84.0
Tl1Sr2Ca0.8Cr0.2Cu2O7,102.0
La3Co4Sn13,2.87
Nd1Pd0.77Bi2,3.2
La0.4Na0.6Rb1Fe4As4,25.5
La0.4Cs0.6Rb1Fe4As4,24.0
La1Pt2Si2,1.22
Ni3Th7,1.94
Eu1Rb1Fe4As4,36.78
Eu0.75Ca0.25Rb1Fe4As4,36.54
Eu0.5Ca0.5Rb1Fe4As4,36.49
Eu0.25Ca0.75Rb1Fe4As4,36.0
Ca1Rb1Fe4As4,36.26
Cr0.808Ru0.182,1.27
Cr0.797Ru0.203,1.69
Cr0.774Ru0.226,2.06
Lu0.8Nd0.2Ba2Cu4O8,75.0
Rb1Ca2Fe4As4F2,30.0
Li0.69Fe1.31S1H1O1,2.71
Li0.48Fe1.52S1H1O1,2.51
Li0.29Fe1.71S1H1O1,2.18
Nb1Te2,5.5
Bi0.9Pb0.1Pd1,3.2
Bi0.8Pb0.2Pd1,2.6
Bi2Pd1,5.3
Bi1.8Pb0.2Pd1,4.4
Bi1.6Pb0.4Pd1,3.1
Bi1.5Pb0.5Pd1,2.5
Sr1Ta2S5,2.4
Na0.4Mo1S2,3.6
Ca0.06Mo1S2,4.0
Sr0.08Mo1S2,5.6
Cr0.82Re0.18,0.49
Cr0.74Re0.26,2.69
Cr0.66Re0.34,4.19
Cr0.6Re0.4,5.49
Cr0.74Re0.26,2.75
Cr0.82Ru0.18,1.42
Cr0.75Ru0.25,2.4
Cr3Ru1,3.25
Ce0.83Nd0.17Co1In5,0.74
Ce0.95Nd0.05Co1In5,1.97
Ca3Ir4Sn13,6.97
Ca3Ir4Sn13,7.69
Ca3Ir4Sn13,8.09
K1Cr3As3,3.75
K1Cr3As3,4.77
Ca1K1Fe4As4,35.6
La1Pt1Ge1,3.05
Ru0.75Rh0.25As1,1.6
Ru0.55Rh0.45P1,3.7
Cu1.5Pb5Bi6Se23,2.7
Ba1Bi3,5.975
Bi3Sr1,5.55
K1Ca2Fe4As4F2,33.2
K1Ca2Fe4As4F2,23.3
Ta1Ir1Te4,1.752
Ta1Ir1Te4,0.54
Ca1.5Sr1.5Ir4Sn13,5.75
Ca2.25Sr0.75Ir4Sn13,6.36
Sr3Rh4Sn13,4.65
Ca0.75Sr2.25Rh4Sn13,4.86
Ca1.5Sr1.5Rh4Sn13,6.42
Ca2.25Sr0.75Rh4Sn13,7.34
Ca2.7Sr0.3Rh4Sn13,7.65
Ca3Rh4Sn13,7.76
Ce1Ir1In4.95Cd0.05,0.99
Ca0.75Sr2.25Rh4Sn13,4.84
Ca1.5Sr1.5Rh4Sn13,6.46
Ca2.25Sr0.75Rh4Sn13,7.5
Ca2.7Sr0.3Rh4Sn13,7.76
Ca2.85Sr0.15Rh4Sn13,7.9
Ca3Rh4Sn13,7.94
Li1M1Fe2Se2,44.36
Li1M1Fe2Se0.4Te0.6,20.28
Hf1As1.67Te0.12,1.7
Nd1Fe1As1F0.3O0.7,46.4
Nd1Fe1As1F0.3O0.7,11.5
Nd1Fe1As1F0.3O0.7,41.4
Nb1Os2,2.7
Hf1As1.7Se0.2,0.52
Ca1Rh2,5.16
Zr4Rh2O0.7,2.8
Zr4Rh2O1,4.7
Ta1B1,4.0
Ta0.9Zr0.1B1,4.62
Ta0.85Zr0.15B1,6.01
Ta0.8Zr0.2B1,7.51
Ta0.75Zr0.25B1,6.0
Ta0.7Zr0.3B1,5.0
Ba1Re1H9,7.0
Ti4O7,2.315
Te2U1,1.65
Te2U1,1.1
Te2U1,1.4
Te2U1,1.5
M1Cs0.4Fe1Se1,31.0
Bi1Te1Cl1,3.6
Bi1Te1Cl1,4.12
Bi1Te1I1,5.39
Lu1Pd2Si2,0.6
Lu1Pt2Si2,1.8
Li1.3K1Sr2Nb3O10,4.0
U0.85Nb0.15,1.9
U0.85Pt0.15,0.75
U0.85Ru0.15,1.4
U0.85Ti0.15,0.45
Pr2Pt3Ge5,6.7
Mo1C1,5.8
C1.36Pb5Bi12Se23,2.9
B6Y1,7.55
B6Y1,7.4
B6Y1,6.6
B6Y1,5.2
Bi2Pd1,1.6
Bi2Pd1,2.78
Ga41Mo1,10.0
As2Cd3,0.186
As2Cd3,0.185
As2Cd3,3.55
Ce1Ni1C2,3.0
Au1Be1,3.2
H1Pt1,6.7
Al6Re1,0.74
Zr1Ir1Si1,1.7
S1Sn1,5.8
Se1Sn1,4.2
P1W1,0.834
Y1Ni1Si3,1.36
Lu1Ni1Si3,1.63
Nd0.04La0.96Ni1C2,2.16
Nd0.03La0.97Ni1C2,2.36
Nd0.02La0.98Ni1C2,2.66
Nd0.01La0.99Ni1C2,3.25
La1Ni1C2,3.25
Pd1S2,2.0
Pr0.9La0.1Pt4Ge12,7.85
Pr0.7La0.3Pt4Ge12,7.87
Pr0.5La0.5Pt4Ge12,7.97
Pr0.3La0.7Pt4Ge12,8.02
Pr0.2La0.8Pt4Ge12,8.07
Pr0.1La0.9Pt4Ge12,8.22
Rb1,2.1
Eu1Fe2As2,27.0
Zr1As1.58Se0.39,0.14
Zr1P1.54S0.46,3.9
Re1,1.69
Re0.88Mo0.12,7.45
Re0.8Mo0.2,9.02
Re0.77Mo0.23,9.43
Re0.77Mo0.23,8.65
Re0.65Mo0.35,6.3
Re0.6Mo0.4,6.07
Re0.55Mo0.45,6.6
Re0.4Mo0.6,13.0
Re0.35Mo0.65,12.05
Re0.25Mo0.75,10.3
Re0.2Mo0.8,8.5
Re0.15Mo0.85,6.74
Re0.1Mo0.9,3.02
Y7Ru4In1Ge12,5.8
Sr0.1Bi2Se3,2.5
Bi3La1,7.3
Zr1P1.6Se0.4,3.98
Zr1P1.5Se0.5,5.19
Zr1P1.4Se0.6,6.28
Zr1P1.3Se0.7,6.22
Zr1P1.2Se0.8,5.0
Zr1P1.1Se0.9,4.61
Ba1Bi3,6.0
Bi3Sr1,5.6
Zr5Ge2.5Pt0.5,2.8
Zr5Ge2.8Pt0.2,2.6
Zr5Ge2Pt1,3.5
Ba1Fe2S3,24.0
La0.34Na0.66Fe2As2,27.0
Bi1Te1I1,5.3
Nb3Sn1,17.75
Nb3Sn1,17.29
Eu3Bi2S3.8Se0.2F4,1.78
Eu3Bi2S3.4Se0.6F4,2.17
Eu3Bi2S3Se1F4,2.39
Eu3Bi2S2.5Se1.5F4,2.72
Eu3Bi2S2Se2F4,3.26
Eu1Sr2Bi2S2Se2F4,2.94
Eu2Sr1Bi2S2.5Se1.5F4,2.35
Eu2Sr1Bi2S2Se2F4,2.575
Ce1Bi1S2O1,1.3
Ce0.9Pr0.1Bi1S2O1,1.4
Ce0.7Pr0.3Bi1S2O1,2.12
Ce0.5Pr0.5Bi1S2O1,2.21
Ce0.3Pr0.7Bi1S2O1,1.92
Ce0.1Pr0.9Bi1S2O1,2.0
Ce0.5Pr0.5Bi1S2O1,2.4
B2Nb1,1.3
Nb0.99Ni0.01B2,3.9
Nb0.97Ni0.03B2,4.3
Nb0.95Ni0.05B2,4.6
Nb0.93Ni0.07B2,5.1
Nb0.91Ni0.09B2,6.0
Nb0.9Ni0.1B2,5.4
Bi1Na1,2.15
Bi3Co1,0.48
Ca1Ir2,5.8
Nb0.5Os0.5,3.07
Bi3Sr1,5.9
Pt1Sb1S1,0.12
La1Fe2As2,9.4
La0.2Na0.8Fe2As2,27.0
La1Fe2As2,7.4
La1Fe2As2,12.2
La0.3Na0.7Fe2As2,22.1
La0.15Na0.85Fe2As2,26.0
Bi2Ca1,2.0
Li0.1K1Ca1Nb3O10,1.75
Eu1Nb2S5,3.0
Pb2Pd1,3.0
Pb1.8Bi0.2Pd1,3.3
Pb1.6Bi0.4Pd1,2.8
Pb1.4Bi0.6Pd1,3.3
Sn3Y1,7.0
Eu1Bi1S2F1,0.35
Eu1Bi1S2F1,8.61
Ca3Ir3.64Co0.36Sn13,75.0
Nb3Sn1,17.8
Nb3Sn1,17.3
Se1Sn1,3.25
Au2Pb1,3.61
Sn1Ta1S2,3.0
Ca10Pt4.5Fe9.5As18,32.0
Ca10Pt4Fe10As18,35.0
Ca10Pt4.3Fe9.7As18,27.0
Ca10Pt4.3Fe8.7As18,13.0
Rb1Cr3As3,7.17
Ca1K1Fe4As4,36.0
Ca1K1Fe3.932Ni0.068As4,28.2
Ca1K1Fe3.864Ni0.136As4,19.3
W3Al2C1,7.5
Bi2Te2Se1,5.45
Bi1.75Sb0.25Te2Se1,3.9
Bi1.5Sb0.5Te2Se1,5.28
Bi1Sb1Te2Se1,2.4
Fe0.995V0.005Se1,8.6
Fe0.99V0.01Se1,8.5
Fe0.98V0.02Se1,8.5
Li0.6M1Fe0.995V0.005Se1,41.1
Li0.6M1Fe0.995V0.005Se1,40.2
Li0.6M1Fe0.995V0.01Se1,41.7
Li0.6M1Fe0.995V0.01Se1,40.9
Li0.6M1Fe0.995V0.02Se1,40.7
Li0.6M1Fe0.995V0.02Se1,40.0
Ta1Os1Si1,4.855
K1Ca2Fe4As4F2,33.0
Bi2Pd1,5.4
Pd1Bi1.92Pb0.08,4.9
Pd1Bi1.85Pb0.15,4.4
Pd1Bi1.8Pb0.2,3.8
Pd1Bi1.72Pb0.28,2.5
Pd1Bi1.65Pb0.35,2.2
Pd1Bi1.6Pb0.4,2.0
Na0.044Pd1Bi2,4.1
Na0.044Pd1Bi2,3.9
Bi2Pd1,4.98
Bi2Pd1,4.81
Bi2Pd1,4.72
Bi2Pd1,4.62
Bi2Pd1,4.47
Bi2Pd1,4.36
Be13U1,0.956
Be13U1,0.911
Be13U1,0.865
Be13U1,0.786
Be13U1,0.65
Be13U1,0.92
U0.99Th0.01Be13,0.63
U0.983Th0.017Be13,0.51
Mn1P1,0.94
Be13U1,0.89
Be13U1,0.53
Be13U1,0.22
Sr0.1Bi2Se3,3.1
Fe1Se0.89S0.11,10.0
Fe1Se1,8.91
Fe1Se0.95S0.05,9.86
Fe1Se0.91S0.09,10.33
Fe1Se0.86S0.14,10.52
Sr0.5Ce0.5F1Bi1S2,2.2
Sr0.5Ce0.5F1Bi1S1.7Se0.3,2.6
Sr0.5Ce0.5F1Bi1S1.5Se0.5,2.65
Sr0.5Ce0.5F1Bi1S1Se1,3.12
Sr0.5Ce0.5F1Bi1S1.5Se0.5,2.7
Sr0.5Ce0.5F1Bi1S1Se1,2.9
Ta0.7Hf0.3B1,6.7
Eu2Sr1Bi2S4F4,9.8
Eu1Sr2Bi2S4F4,8.2
B4.2W1,2.1
Bi3Ni1,4.07
Se2Ta1.06,3.2
Se2Ta1.08,2.95
Se2Ta1.1,2.1
Mo3P1,5.6
Nb5Sn2Al1,2.0
Nd0.8Sr0.2Ni1O2,7.5
Cd3As2,2.1
Sr1Ti1O3,0.67
Bi2Sr2Cu1O8+d,91.0
Ce1Cu2Si2,0.71
Li1Nb1O2,3.9
Pb0.9Bi2Te3.8,7.9
Li1Ti2O4,13.6
Li1Ti2O4,12.0
Fe1Te0.6Se0.4,14.0
Fe1Se1S0,8.75
Fe1Se0.95S0.05,9.12
Fe1Se0.9S0.1,8.91
Fe1Se0.87S0.13,8.7
Fe1Se0.84S0.16,8.91
Fe1Se0.82S0.18,7.96
Fe1Se0.8S0.2,5.99
Fe1Se0.75S0.25,7.39
Ba1Fe1.9Ni0.1As2,19.2
Ba1Fe1.935Ni0.065As2,7.8
Ba1Fe1.925Ni0.075As2,13.2
Ba1Fe1.915Ni0.085As2,16.9
Ba1Fe1.908Ni0.082As2,18.5
Ba1Fe1.9Ni0.1As2,20.1
Ba1Fe1.88Ni0.12As2,19.0
Ba1Fe1.85Ni0.15As2,14.1
Ba1Fe1.82Ni0.18As2,8.7
Ba1Fe1.8Ni0.2As2,5.2
Rb1Eu1Fe4As4,37.0
Rb1Eu1Fe4As4,37.8
In1,3.14
Ca3Ir4Sn13,5.0
Sr3Ir4Sn13,7.0
Ca1K1Fe4As4,34.97
Nb1C1,7.0
Nb5Ir3O1,10.5
Nb5Ir1.4Pt1.6O1,9.1
Fe1Te0.8Se0.2,8.6
Fe1Te0.7Se0.3,11.9
Fe1Te0.6Se0.4,13.7
K1Mo15Se19,2.8
Tl1Ni2Se2,3.55
Nb5Ir3O1,10.84
Nb5Ir2.4Pt0.6O1,10.27
Nb5Ir2.2Pt0.8O1,10.44
Nb5Ir2Pt1O1,9.01
Nb5Ir1.4Pt1.6O1,8.56
Nb5Ir1.2Pt1.8O1,7.98
Nb5Ir1Pt2O1,7.41
Nb5Ir0.8Pt2.2O1,6.69
Nb5Ir0.4Pt2.6O1,6.42
Nb5Ir0.2Pt2.8O1,4.89
Nb5Ir0Pt3O1,5.03
Ta1As1,3.0
Ta1As1,7.3
Mo2C1,3.03
Fe1Se0.84S0.16,8.2
Fe1Se0.82S0.18,8.1
Fe1Se1,8.7
Fe1Se0.96S0.04,9.6
Fe1Se0.92S0.08,10.3
Fe1Se0.88S0.12,9.4
Fe1Se0.85S0.15,7.5
Fe1Se0.83S0.17,7.2
Fe1Se0.79S0.21,5.6
La1Al1O3,0.36
La1Al1O3,0.296
Fe1Se1,9.0
Fe1Se1S0,9.01
Fe1Se0.93S0.07,10.42
Fe1Se0.89S0.11,10.64
Fe1Se0.83S0.17,10.33
Fe1Se0.75S0.25,6.09
Bi2Pd1,5.0
La2Ni2In1,0.89
Fe1Se1,7.75
In74.72Sn15.36Pb8.75Si1.17,6.0
Mg1C1Na1Sn1Ca1Al1Si1Ni1In1Pb1,5.5
Ba1Fe2As0.4P1.6,9.1
Ba1Fe2As0.48P1.52,17.1
Ba1Fe2As0.64P1.36,32.0
Ba1Fe2As0.76P1.24,26.7
Ba1Fe2As0.9P1.1,24.3
Ba1Fe2As1.04P0.96,15.2
Ba1Fe2As1.22P0.78,9.1
Nb1Se2,3.0
Zr1Pd1S1,3.64
Zr0.5Lu0.5P1S1,5.78
Zr0.6Lu0.4P1S1,6.41
Zr0.675Lu0.325P1S1,5.9
Zr0.75Lu0.25P1S1,5.81
Zr0.4Y0.6P1S1,5.35
Zr0.5Y0.5P1S1,5.34
Zr0.6Y0.4P1S1,4.88
Zr0.75Y0.25P1S1,4.97
Hf1P1.55S0.45,4.9
Hf0.8Lu0.2P1.55S0.45,4.81
Hf0.7Lu0.3P1.55S0.45,4.75
Hf0.6Lu0.4P1.55S0.45,5.91
Hf0.5Lu0.5P1.55S0.45,5.68
Hf0.8Y0.2P1.55S0.45,5.01
Hf0.7Y0.3P1.55S0.45,4.52
Hf0.6Y0.4P1.55S0.45,4.81
Zr1P1.25Se0.75,5.907
Zr1.85Sc0.15P1.25Se0.75,7.333
Zr1.75Sc0.25P1.25Se0.75,7.574
Zr1.7Sc0.3P1.25Se0.75,7.352
Zr1.6Sc0.4P1.25Se0.75,7.315
Zr1.3Sc0.7P1.25Se0.75,3.444
Zr1.85La0.15P1.25Se0.75,5.889
Zr1.75La0.25P1.25Se0.75,5.185
Zr1.6La0.4P1.25Se0.75,5.185
Zr1.85Y0.15P1.25Se0.75,6.37
Zr1.75Y0.25P1.25Se0.75,6.056
Zr1.6Y0.4P1.25Se0.75,5.09
Zr1.5Y0.5P1.25Se0.75,5.63
Zr1.85Lu0.15P1.25Se0.75,6.278
Zr1.75Lu0.25P1.25Se0.75,7.093
Zr1.6Lu0.4P1.25Se0.75,7.241
Zr1.5Lu0.5P1.25Se0.75,6.778
Hf1P1.45S0.55,3.13
Hf0.8Lu0.2P1.45S0.55,4.09
Hf0.7Lu0.3P1.45S0.55,4.85
Hf0.6Lu0.4P1.45S0.55,4.48
Hf0.5Lu0.5P1.45S0.55,5.87
Hf0.4Lu0.6P1.45S0.55,5.0
Hf0.7Y0.3P1.45S0.55,4.53
Hf0.6Y0.4P1.45S0.55,4.74
Hf0.5Y0.5P1.45S0.55,4.42