composition,critical_temperature_tc
La1.85Sr0.15Cu1O4,27.0
La1.85Sr0.15Cu1O4,23.0
La1.85Sr0.15Cu1O4,25.0
La1.825Sr0.175Cu1O4,24.0
La1.825Sr0.175Cu1O4,27.5
Bi2Sr1.9La0.1Cu1O6+Z,8.0
Bi2Sr1.8La0.2Cu1O6+Z,12.0
Bi2Sr1.7La0.3Cu1O6+Z,19.0
Bi2Sr1.6La0.4Cu1O6+Z,20.0
Bi2Sr1.5La0.5Cu1O6+Z,21.0
Bi2Sr1.4La0.6Cu1O6+Z,11.0
Bi2Sr1.3La0.7Cu1O6+Z,10.0
Tl1Ba2Ca1Cu2O7-D,93.0
Tl1Ba2Ca1Cu2O7-D,92.0
Hg1Ba2Ca1Cu2O6+D,122.0
Hg1Ba2Ca1Cu2O6+D,120.0
Hg1Ba2Ca1Cu2O6+D,123.0
La1.79Sr0.21Cu1O4,27.0
La1.78Sr0.22Cu1O4,21.0
La1.77Sr0.23Cu1O4,21.0
La1.76Sr0.24Cu1O4,16.0
La1.74Sr0.26Cu1O4,13.0
La1.82Sr0.18Cu0.995Zn0.005O4,30.0
La1.81Sr0.19Cu0.995Zn0.005O4,29.0
La1.8Sr0.2Cu0.995Zn0.005O4,19.5
La1.79Sr0.21Cu0.995Zn0.005O4,20.0
La1.78Sr0.22Cu0.995Zn0.005O4,20.0
La1.77Sr0.23Cu0.995Zn0.005O4,18.0
La1.76Sr0.24Cu0.995Zn0.005O4,13.0
La1.83Sr0.17Cu0.99Zn0.01O4,25.0
La1.82Sr0.18Cu0.99Zn0.01O4,25.0
La1.815Sr0.185Cu0.99Zn0.01O4,24.0
La1.81Sr0.19Cu0.99Zn0.01O4,19.0
La1.805Sr0.195Cu0.99Zn0.01O4,20.0
La1.8Sr0.2Cu0.99Zn0.01O4,21.0
La1.79Sr0.21Cu0.99Zn0.01O4,20.0
La1.78Sr0.22Cu0.99Zn0.01O4,17.0
Er0.8Pr0.2Ba2Cu3O7-Z,80.0
Er0.75Pr0.2Ca0.05Ba2Cu3O7-Z,80.0
Er0.7Pr0.2Ca0.1Ba2Cu3O7-Z,78.0
Er0.6Pr0.2Ca0.2Ba2Cu3O7-Z,74.0
Er0.5Pr0.2Ca0.3Ba2Cu3O7-Z,71.0
Er0.9Pr0.1Ba2Cu3O7-Z,80.0
Er0.85Pr0.1Ca0.05Ba2Cu3O7-Z,82.0
Er0.8Pr0.1Ca0.1Ba2Cu3O7-Z,77.0
Er0.7Pr0.1Ca0.2Ba2Cu3O7-Z,73.0
La1.85Sr0.15Cu1O4,43.0
Y1Ba2Cu2.919Zn0.081O6.7,17.0
Y1Ba2Cu2.931Zn0.069O6.7,28.0
Y1Ba2Cu2.961Zn0.039O6.7,38.0
Y1Ba2Cu2.931Zn0.069O6.6,20.0
Y1Ba2Cu2.919Zn0.081O6.75,20.0
Y1Ba2Cu2.919Zn0.081O6.8,24.0
Y1Ba2Cu2.919Zn0.081O6.83,28.0
Nd1Ba2Cu3O6.09,90.5
Nd1Ba2Cu3O6.23,60.5
Nd1.08Ba1.92Cu3O6.17,77.5
Hg1Ba2Cu1O4.06,75.0
Hg1Ba2Cu1O4.13,97.0
Hg1Ba2Cu1O4.19,70.0
Y0.95Ca0.05Ba1.95La0.05Cu3OZ,89.5
Y0.9Ca0.1Ba1.9La0.1Cu3OZ,86.0
Y0.8Ca0.2Ba1.8La0.2Cu3OZ,85.5
Y0.7Ca0.3Ba1.7La0.3Cu3OZ,84.5
Y0.6Ca0.4Ba1.6La0.4Cu3OZ,83.0
Y0.95Ca0.05Ba2Cu2.95Co0.05OZ,88.0
Y0.9Ca0.1Ba2Cu2.9Co0.1OZ,88.5
Y0.85Ca0.15Ba2Cu2.85Co0.15OZ,87.0
Y0.8Ca0.2Ba2Cu2.8Co0.2OZ,84.0
Y0.75Ca0.25Ba2Cu2.75Co0.25OZ,85.0
Y0.7Ca0.3Ba2Cu2.7Co0.3OZ,83.0
Y1Ba2Cu3OZ,86.0
Y0.95Ca0.05Ba1.95La0.05Cu3OZ,82.0
Y0.9Ca0.1Ba1.9La0.1Cu3OZ,77.5
Y0.8Ca0.2Ba1.8La0.2Cu3OZ,76.0
Y0.7Ca0.3Ba1.7La0.3Cu3OZ,68.0
Y0.6Ca0.4Ba1.6La0.4Cu3OZ,67.5
Y1Ba2Cu3OZ,84.5
Y0.95Ca0.05Ba2Cu2.95Co0.05OZ,74.5
Y0.9Ca0.1Ba2Cu2.9Co0.1OZ,70.0
Y0.85Ca0.15Ba2Cu2.85Co0.15OZ,57.0
Y0.8Ca0.2Ba2Cu2.8Co0.2OZ,55.0
Y0.75Ca0.25Ba2Cu2.75Co0.25OZ,68.0
Y0.7Ca0.3Ba2Cu2.7Co0.3OZ,72.0
La1.7575Pr0.0925Sr0.15Cu1O4,37.0
La1.665Pr0.185Sr0.15Cu1O4,35.0
La1.48Pr0.37Sr0.15Cu1O4,34.0
La1.295Pr0.555Sr0.15Cu1O4,33.0
La1.13Pr0.72Sr0.15Cu1O4,32.0
La0.925Pr0.925Sr0.15Cu1O4,32.0
Tl2Ba2Ca2Cu3O10+Z,119.0
Tl2Ba2Ca2Cu3O10+Z,120.0
La1.87Sr0.13Cu1O4,32.0
La1.86Sr0.14Cu1O4,36.0
Y1Ba2Cu2.97Mn0.03O7-Z,91.0
Y1Ba2Cu2.955Mn0.045O7-Z,91.0
Y1Ba2Cu2.94Mn0.06O7-Z,91.0
Y1Ba2Cu2.925Mn0.075O7-Z,85.0
Y1Ba2Cu2.895Mn0.105O7-Z,83.0
Y1Ba2Cu2.85Mn0.15O7-Z,82.0
Y1Ba2Cu2.925Fe0.075O7-Z,80.0
La1.87Sr0.13Cu1O4,35.0
La1.78Sr0.22Cu1O4,30.0
Bi2Sr2Ca1Cu2OZ,80.5
Bi2Sr2Ca0.89Pr0.11Cu2OZ,73.0
Bi2Sr2Ca0.83Pr0.17Cu2OZ,51.6
Bi2Sr2Ca0.72Pr0.28Cu2OZ,54.3
Bi2Sr2Ca0.65Pr0.35Cu2OZ,30.0
Bi2Sr2Ca1Cu2OZ,85.5
Bi2Sr2Ca0.83Pr0.17Cu2OZ,84.2
Bi2Sr2Ca0.72Pr0.28Cu2OZ,72.4
Bi2Sr2Ca0.65Pr0.35Cu2OZ,68.8
Bi2Sr2Ca0.55Pr0.45Cu2OZ,46.6
Bi2Sr2Ca0.47Pr0.53Cu2OZ,30.8
I1Bi1.9Pb0.1Sr2Ca1Cu2O8+Z,80.0
Y1Ba2Cu4O8,77.0
Y0.8Pr0.2Ba2Cu4O8,66.0
Y0.6Pr0.4Ba2Cu4O8,49.0
Y0.4Pr0.6Ba2Cu4O8,32.0
Y1Ba2Cu2.99Zn0.01O7,86.5
Y1Ba2Cu2.98Zn0.02O7,85.0
Y1Ba2Cu2.97Zn0.03O7,83.5
Bi2Sr2Ca1Cu2O8+X,78.0
La1.84Sr0.16Cu0.99Co0.01O4,30.0
La1.83Sr0.17Cu0.98Co0.02O4,18.0
Y0.5Yb0.5Ba2Sr0Cu3O7-Z,87.2
La1.85Sr0.15Cu1O4,38.9
La1.85Sr0.15Cu0.995Ni0.005O4,36.1
La1.85Sr0.15Cu0.99Ni0.01O4,33.6
La1.85Sr0.15Cu0.985Ni0.015O4,31.7
La1.85Sr0.15Cu0.975Ni0.025O4,26.8
La1.85Sr0.15Cu0.965Ni0.035O4,23.8
La1.85Sr0.15Cu0.995Zn0.005O4,31.9
La1.85Sr0.15Cu0.99Zn0.01O4,27.9
La1.85Sr0.15Cu0.98Zn0.02O4,17.5
Bi2.1Sr1.7Ca0.9Cu2OZ,79.1
Bi1.9Sr1.7Ca0.9Cu2OZ,73.3
Bi2Pb0.1Sr1.8Ca0.9Cu2OZ,70.0
Bi1.8Pb0.2Sr1.8Ca0.9Cu2OZ,67.2
Bi1.6Pb0.4Sr1.8Ca0.9Cu2OZ,65.1
Bi2.1Sr1.7Ca0.9Cu2OZ,85.0
Bi1.6Pb0.4Sr1.8Ca0.9Cu2OZ,85.5
La1.905Ba0.095Cu1O4,31.0
Y1Ba2Cu3OY,93.0
Y1Ba2Cu2.988Zn0.012OY,85.0
Y1Ba2Cu2.982Zn0.018OY,82.0
Y1Ba2Cu2.97Ni0.03OY,87.0
Bi2Sr2Ca1Cu1.2Li0.8Oz,89.0
Bi2Sr2Ca1Cu1.2Li0.2Oz,50.0
Bi2Sr2Ca1Cu1.2Li0.8Oz,82.0
Bi2Sr2Ca1Cu2Oz,74.0
Bi2Sr2Ca1Cu1.2Li0.8Oz,80.0
Bi2Sr2Ca1Cu2Oz,40.0
Bi2Sr2Ca1Cu1.2Li0.8Oz,74.2
Bi2Sr2Ca1Cu2O8,76.0
Bi2Sr2Ca1Cu2Oz,89.0
Bi2Sr2Ca1Cu2O8.24,80.0
Bi2Sr2Ca1Cu2O8.17,85.5
Bi2Sr2Ca1Cu2O8,82.5
Bi2Sr2Ca1Cu2O8.14,81.0
Bi2Sr2Ca1Cu2O8.16,86.0
Bi2Sr2Ca1Cu2O8,89.0
Bi2Sr2Ca1Cu2O8,86.0
Y1Ba2Cu3Oz,88.4
Y1Ba2Cu3Oz,89.5
Y1Ba2Cu3Oz,91.0
Bi4Sr3Ca3Cu4Oz,80.0
Bi4Sr3Ca3Cu3.96Fe0.4Oz,72.0
Bi4Sr3Ca3Cu3.88Fe0.12Oz,66.0
Bi4Sr3Ca3Cu3.6Fe0.4Oz,70.0
Y1Ba2Cu3O7,86.6
Lu1Ba2Cu3O7,87.0
Lu1Ba2Cu3O7,85.0
Lu1Ba2Cu3O7,86.0
Y1Ba2Cu3O7,80.0
Nd1.86Ce0.14Cu1O4-z,22.0
Nd1.83Ce0.17Cu1O4-z,14.0
Nd1.82Ce0.18Cu1O4-z,9.0
Y1Ba2Cu3O7,89.4
La2Cu1O4.03,25.8
La2Cu1O4.04,28.0
Eu1Ba2Cu3O6.5,92.0
Gd1Ba2Cu3O7-z,92.65
Gd1.1Ba1.9Cu3O7-z,80.6
Gd0.8Ba1.8Cu3O7-z,48.55
Gd0.7Ba1.7Cu3O7-z,36.55
Gd0.62Ba1.62Cu3O7-z,34.8
La2Cu1O4.08,30.0
La1.85Sr0.15Cu1O4+z,37.43
La1.85Sr0.15Cu0.995Ni0.005O4+z,34.41
La1.85Sr0.15Cu0.99Ni0.01O4+z,30.0
La1.85Sr0.15Cu0.985Ni0.015O4+z,25.9
La1.85Sr0.15Cu0.98Ni0.02O4+z,21.96
La1.85Sr0.15Cu0.975Ni0.025O4+z,16.6
La1.85Sr0.15Cu0.97Ni0.03O4+z,12.7
La1.85Sr0.15Cu1O4+z,37.5
La1.85Sr0.15Cu0.997Fe0.003O4+z,33.6
La1.85Sr0.15Cu0.995Fe0.005O4+z,30.82
La1.85Sr0.15Cu0.993Fe0.007O4+z,26.25
La1.85Sr0.15Cu0.992Fe0.008O4+z,24.73
La1.85Sr0.15Cu0.991Fe0.009O4+z,19.85
La1.85Sr0.15Cu0.989Fe0.011O4+z,17.7
La1.85Sr0.15Cu0.996Zn0.004O4+z,37.5
La1.85Sr0.15Cu0.992Zn0.008O4+z,28.5
La1.85Sr0.15Cu0.988Zn0.012O4+z,23.7
La1.85Sr0.15Cu0.984Zn0.016O4+z,19.0
La1.85Sr0.15Cu0.978Zn0.022O4+z,13.6
La1.85Sr0.15Cu1O4+z,37.57
La1.85Sr0.15Cu0.998Co0.002O4+z,34.61
La1.85Sr0.15Cu0.995Co0.005O4+z,32.17
La1.85Sr0.15Cu0.993Co0.007O4+z,29.57
La1.85Sr0.15Cu0.99Co0.01O4+z,24.86
La1.85Sr0.15Cu0.988Co0.013O4+z,23.21
La1.85Sr0.15Cu0.985Co0.015O4+z,13.82
La1.85Sr0.15Cu0.983Co0.018O4+z,13.05
La1.8Sr0.2Cu1O4+z,34.62
La1.8Sr0.2Cu0.995Ni0.005O4+z,31.47
La1.8Sr0.2Cu0.99Ni0.01O4+z,28.26
La1.8Sr0.2Cu0.985Ni0.015O4+z,25.77
La0.8Sr0.2Cu0.98Ni0.02O4+z,22.36
La1.8Sr0.2Cu0.975Ni0.025O4+z,19.61
La1.8Sr0.2Cu0.97Ni0.03O4+z,17.22
La1.8Sr0.2Cu0.965Ni0.035O4+z,14.03
La1.8Sr0.2Cu1O4+z,34.44
La1.8Sr0.2Cu0.997Fe0.003O4+z,32.28
La1.8Sr0.2Cu0.995Fe0.005O4+z,29.3
La1.8Sr0.2Cu0.993Fe0.007O4+z,27.86
La1.8Sr0.2Cu0.99Fe0.01O4+z,23.81
La1.8Sr0.2Cu0.988Fe0.012O4+z,20.65
La1.8Sr0.2Cu0.985Fe0.015O4+z,16.04
La1.8Sr0.2Cu0.983Fe0.017O4+z,13.02
Hg1Sr2La0.333Ce0.667Cu2O6+z,40.0
Hg1Sr2La0.3Ca0.5Ce0.2Cu2O6+z,81.0
Hg1Sr2La0.5Ca0.5Cu2O6+z,54.0
Hg1Sr2La1Cu2O6+z,28.0
Hg1Sr2La0.5Ca0.5Cu2O6+z,51.0
Hg1Sr2Pr0.333Ce0.667Cu2O6+z,40.0
Hg1Sr2Nd0.925Ca0.075Cu2O6+z,56.0
Hg1Sr2Sm0.333Ce0.667Cu2O6+z,40.0
Hg1Sr2Ho0.333Ce0.667Cu2O6=z,72.0
Y0.19Ba1.99Cu2.85O7-z,94.5
Hg0.8Mn0.2Ba2Cu1O4.2,91.0
Hg0.8Nd0.2Ba2Cu1O4.3,77.0
Hg0.8Mn0.2Ba2Ca1Cu2O6.2,114.0
Hg0.8Ge0.2Ba2Ca1Cu2O6.2,124.0
Hg0.8Nd0.2Ba2Ca2Cu3O8.3,128.0
Y1Ba2Cu3O7-z,88.0
Y1Sr2Cu2.8Al0.1Mo0.1O6+z,18.0
Y1Sr2Cu2.8Al0.1W0.1O6+z,17.0
Y1Sr2Cu2.8Mo0.1W0.1O6+z,32.0
Y1Ba2Cu3O7,82.0
Y0.9Eu0.1Ba2Cu3O7-z,92.0
Ho1Ba2Cu3Oz,92.0
Ho1Ba2Cu3Oz,50.0
Nd2Cu1F0.1O4,6.0
Nd2Cu1F0.2O4,13.0
Nd2Cu1F0.3O4,19.0
Nd2Cu1F0.4O4,23.0
Nd2Cu1F0.5O4,18.0
Bi2Sr2Ca1Cu2.3O8+z,60.0
Bi2Sr2Ca1.2Cu3.22O8,70.0
Bi2.13Sr1.21Ca1.32Cu2.22O8+z,90.0
Bi2Sr1.37Ca1.31Cu2.22O8+z,93.5
Bi1.99Sr1.52Ca1.34Cu1.86Pb0.15O8+z,60.0
Bi2.1Sr1.45Ca1.21Cu2Pb0.09O8+z,60.0
Bi2Ba1.8In1.2Cu1O6+z,95.0
Bi2Ba1.8Pb0.2Cu1O6+z,95.0
Bi2Ba1.8Ru0.2Cu1O6+z,95.0
Y1Ba1.5Sr0.5Cu3Oz,11.0
Y1Ba1.5Sr0.5Cu3Oz,42.0
Y1Ba1.5Sr0.5Cu3Oz,47.0
YBa1.5Sr0.5Cu3Oz,90.0
Gd1Ba1.5Sr0.5Cu3O6.63,18.0
Gd1Ba1.5Sr0.5Cu3O6.72,32.0
Gd1Ba1.5Sr0.5Cu3O6.93,82.0
Gd1Ba1Sr1Cu3O6.77,4.0
Gd1Ba1Sr1Cu3O6.93,83.0
Y1Ba1.5La0.5Cu3O7.22,36.6
Y0.9Ca0.1Ba1.5La0.5Cu3O7.19,57.9
Y0.8Ca0.2Ba1.5La0.5Cu3O7.13,73.0
Y0.6Ca0.4Ba1.5La0.5Cu3O7.01,82.4
Y0.5Ca0.5Ba1.5La0.5Cu3O6.96,82.5
Y1Ba2Cu2.75Co0.25O7.06,66.2
Y0.95Ca0.05Ba2Cu2.75Co0.25O7.06,75.1
Y0.9Ca0.1Ba2Cu2.75Co0.25O7.03,76.9
Y0.85Ca0.15Ba2Cu2.75Co0.25O7.01,80.6
Y0.8Ca0.2Ba2Cu2.75Co0.25O7.01,82.2
Y0.75Ca0.25Ba2Cu2.75Co0.25O6.98,82.4
Bi2Sr2Ca1Cu2Oz,61.0
Bi1.34Pb0.66Sr2Ca1Cu2Oz,72.2
Bi1.86Pb0.14Sr2Ca1Cu2Oz,65.0
Bi1.8Pb0.2Sr2Ca1Cu2Oz,60.7
Bi1.34Pb0.66Sr2Ca2Cu3Oz,108.9
Bi2Sr2Ca0.9Nd0.1Cu2Oz,83.3
Bi2Sr2Ca0.8Nd0.2Cu2Oz,82.0
Bi2Sr2Ca0.7Nd0.3Cu2Oz,80.2
Bi2Sr2Ca0.6Nd0.4Cu2Oz,68.6
Bi2Sr2Ca0.5Nd0.5Cu2Oz,42.4
Bi2Sr2Ca0.9Y0.1Cu2Oz,78.9
Bi2Sr2Ca0.8Y0.2Cu2Oz,76.2
Bi2Sr2Ca0.7Y0.3Cu2Oz,70.5
Bi2Sr2Ca0.6Y0.4Cu2Oz,53.1
Bi2Sr2Ca0.5Y0.5Cu2Oz,31.5
Y1Ba1.8Cu3Oz,94.0
Y1Ba1.9Cu3Oz,96.0
Y1Ba2Cu3Oz,97.0
Y1Ba2.1Cu3Oz,96.0
Y1Ba2.2Cu3Oz,96.0
Y0.8Ba2Cu3O6.44,96.0
Y0.9Ba2Cu3O6.58,93.4
Y1Ba2Cu3O6.69,97.0
Y1.1Ba2Cu3O6.87,95.9
Y1.2Ba2Cu3O6.98,93.4
Pb0.63Cu2.27Sr1.9Cd0.1Y0.79Ca0.21Oz,45.0
Pb0.63Cu2.27Sr1.8Cd0.2Y0.79Ca0.21Oz,45.0
Pb0.63Cu2.27Sr1.75Cd0.25Y0.79Ca0.21Oz,45.0
Pb0.63Cu2.27Sr1.7Cd0.3Y0.79Ca0.21Oz,45.0
Pb0.63Cu2.27Sr0.65Cd0.35Y0.79Ca0.21Oz,45.0
Pb0.63Cu2.27Sr1.6Cd0.4Y0.79Ca0.21Oz,45.0
Pb0.63Cu2.27Sr1.5Cd0.5Y0.79Ca0.21Oz,45.0
Pb0.63Cu2.27Sr2Y0.79Ca0.21Oz,34.5
Pb0.63Cu2.27Sr1.79Ca0.21Y0.79Ca0.21Oz,34.5
Pb0.63Cu2.27Sr1.79Cd0.21Y0.79Ca0.21Oz,66.5
Hg1Ba2Cu1FO4,97.0
Hg1Ba2Cu1FO4,96.0
Hg1Ba2Cu1FO4,90.0
Hg1Ba2Cu1FO4,88.0
Hg1Ba2Cu1FO4,78.0
La1.85Sr0.15Cu1O4,39.2
Y1Ba2Cu3O6.95,88.5
Y1Ba1.95La0.05Cu3O6.98,89.3
Y1Ba1.9La0.1Cu3O6.99,90.35
Y1Ba1.8La0.2Cu3O7.03,88.7
Y1Ba1.7La0.3Cu3O7.1,80.5
Y1Ba1.6La0.4Cu3O7.14,68.15
Y1Ba1.5La0.5Cu3O7.17,54.1
Y1Ba2Cu3O6.965,88.5
Y0.95Pr0.05Ba2Cu3O6.965,88.0
Y0.9Pr0.1Ba2Cu3O6.965,85.0
Y0.8Pr0.2Ba2Cu3O6.965,70.0
Y0.7Pr0.3Ba2Cu3O6.965,55.0
Y0.6Pr0.4Ba2Cu3O6.965,35.0
Y0.5Pr0.5Ba2Cu3O6.965,10.0
Y1Ba2Cu2.85Au0.15Oz,90.0
Y1Ba2Cu2.7Au0.3Oz,88.0
Bi1.7Pb0.3Sr2Ca2Cu3Oz,108.55
Bi1.7Pb3Sr2Ca2Cu3Cs0.1Oz,109.05
Bi1.7Pb0.3Sr2Ca2Cu3Cs0.2Oz,108.65
Bi1.7Pb0.3Sr2Ca2Cu3Cs0.3Oz,109.0
Bi1.7Pb0.3Sr2Ca2Cu3Cs0.4Oz,107.3
Bi1.7Pb0.3Sr2Ca2Cu3Cs0.5Oz,108.55
Bi1.7Pb0.3Sr2Ca2Cu3Cs0.6Oz,108.0
Bi1.7Pb0.3Sr2Ca2Cu3Cs0.7Oz,108.95
Bi1.7Pb0.3Sr2Ca2Cu3Cs0.8Oz,108.5
Bi0.7Pb0.3Sr2Ca2Cu3Cs0.9Oz,108.95
Bi1.7Pb0.3Sr2Ca2Cu3Cs1Oz,108.5
Y0.8Ce0.1Ca0.1Ba2Cu4O8,63.0
Hg1Ba2Ca2Cu3O8.28,118.5
Hg1Ba2Ca2Cu3O8.35,134.0
Nd0.7Pr0.3Ba1.75Sr0.25Cu3Oz,24.0
Nd0.7Pr0.3Ba1.5Sr0.5Cu3Oz,26.0
Nd0.7Pr0.3Ba1.25Sr0.75Cu3Oz,27.0
Nd0.7Pr0.3Ba1.15Sr0.85Cu3Oz,29.0
Nd0.7Pr0.3Ba1Sr1Cu3O6.87,34.0
Nd0.7Pr0.3Ba1.25Sr0.75Cu3O7-z,34.0
Nd0.7Pr0.3Ba1.15Sr0.85Cu3O7-z,38.0
Nd0.7Pr0.3Ba1Sr1Cu3O7-z,44.0
Hg0.5C0.5Ba2Cu1O4+z,63.0
Y0.95Ca0.05Ba2Cu4O8,87.2
Y0.88Ca0.12Ba2Cu4O8,88.5
Y0.85Ca0.15Ba2Cu4O8,87.8
Bi1.6Pb0.4Sr2Ca2Cu3Oz,109.8
Bi1.6Pb0.4Sr2Ca2Cu3F0.8Oz-0.8,109.9
Bi1.6Pb0.4Sr1.98K0.02Ca2Cu3F0.8OZ-0.8,106.6
Bi1.6Pb0.4Sr1.95K0.05Ca2Cu3F0.8Oz-0.8,105.6
Tl1.15Sr1.6Ba0.4Ca2Cu3Ag0.4Oz,36.0
Tl0.115Pb0.104Sr1.6Ba0.4Ca2Cu3Ag0.4Oz,88.0
Tl0.23Ca0.92Sr1.6Ba0.4Ca2Cu3Ag0.4Oz,98.0
Tl0.345Pb0.805Sr1.6Ba0.4Ca2Cu3Ag0.4Oz,106.0
Tl0.46Pb0.69Sr1.6Ba0.4Ca2Cu3Ag0.4Oz,112.0
Tl0.575Pb0.575Sr1.6Ba0.4Ca2Cu3Ag0.4Oz,116.0
Tl0.69Pb0.46Sr1.6Ba0.4Ca2Cu3Ag0.4Oz,119.0
Tl0.805Pb0.345Sr1.6Ba0.4Ca2Cu3Ag0.4Oz,96.0
Tl0.92Pb0.23Sr1.6Ba0.4Ca2Cu3Ag0.4Oz,80.0
Bi4Sr3Ca3Cu4OZ,70.0
Bi3.9Pb0.1Sr3Ca3Cu4OZ,72.0
Bi3.5Pb0.5Sr3Ca3Cu4OZ,73.5
Bi1Pb1Sr3Ca3Cu4OZ,78.5
Y1Ba2Cu3O6.95,88.0
Y1Ba1.95La0.05Cu3O6.98,90.0
Y1Ba1.9La0.1Cu3O6.99,91.0
Y1Ba1.8La0.2Cu3O7.03,89.0
Y1Ba1.7La0.3Cu3O7.1,80.0
Y1Ba1.6La0.4Cu3O7.14,70.0
Y1Ba1.5La0.5Cu3O7.17,57.0
Y1Ba2Cu3O6.86,84.0
Y1Ba1.95La0.05Cu3O6.89,86.0
Y1Ba1.9La0.1Cu3O6.92,87.0
Y1Ba1.8La0.2Cu3O6.96,78.0
Y1Ba1.7La0.3Cu3O7.02,77.0
Y1Ba1.6La0.4Cu3O7.04,59.0
Y1Ba1.5La0.5Cu3O7.06,22.0
Y1Ba1.95Cu2.95Co0.05O7,90.0
Y1Ba1.9Cu2.9Co0.1O7.02,89.0
Y1Ba1.85Cu2.85Co0.15O7.04,79.0
Y1Ba1.8Cu2.8Co0.2O7.05,70.0
Y1Ba1.75Cu2.75Co0.25O7.06,63.0
Y1Ba1.95Cu2.95Co0.05O6.9,70.0
Y1Ba1.9Cu2.9Co0.1O6.92,66.0
Y1Ba1.85Cu2.85Co0.15O6.94,55.0
Y1Ba1.8Cu2.8Co0.2O6.95,43.0
Y1Ba1.75Cu2.75Co0.25O6.95,25.0
Y1Ba2Cu3.996Ni0.004O8,78.0
Y1Ba2Cu3.98Ni0.02O8,63.1
Y1Ba2Cu3.96Ni0.04O8,44.0
Y1Ba2Cu3.92Ni0.08O8,14.7
Y1Ba2Cu3.992Zn0.008O8,66.1
Y1Ba2Cu3.98Zn0.02O8,47.0
Y1Ba2Cu3.96Zn0.04O8,16.0
Eu1.4Ce0.6Nb1Sr2Cu2O10-d,21.0
Hg1Ba2Ca0.86Sr0.14Cu2O6+d,120.0
Hg0.5Tl0.5Ba2Ca0.86Sr0.14Cu2O6+d,122.0
Hg1Ba2Ca1.72Sr0.28Cu3O8+d,126.0
Hg0.5Tl0.5Ba2Ca1.72Sr0.28Cu3O8+d,128.0
Sr0.4Ca13.6Cu24O41+z,10.0
Tl0.75Ba2Ca2Cu3Oz,131.0
Tl0.75Ba2Ca2Cu3Oz,133.5
Tl1Ba2Ca2Cu3Oz,122.0
Tl1Ba2Ca2Cu3C0.2Oz,123.5
Tl0.75Ba2Ca2Cu3C0.02Oz,133.5
Tl0.75Ba2Ca2Cu3C0.02Oz,127.0
Bi2Sr2Ca1Cu2OZ,78.0
Bi2Sr2Ca1Cu1.96Co0.04OZ,69.0
Bi2Sr2Ca1Cu1.92Co0.08OZ,62.0
Bi2Sr2Ca1Cu1.88Co0.12OZ,58.0
Bi2Sr2Ca1Cu1.84Co0.16OZ,51.0
Bi2Sr2Ca0.8Y0.2Cu2OZ,89.0
Bi2Sr2Ca0.8Y0.2Cu1.96Co0.04OZ,78.0
Bi2Sr2Ca0.8Y0.2Cu1.92Co0.08OZ,66.0
Bi2Sr2Ca0.8Y0.2Cu1.88Co0.12OZ,48.0
Bi2Sr2Ca0.8Y0.2Cu1.84Co0.16OZ,35.0
Bi2Sr2Ca0.7Y0.3Cu2OZ,92.0
Bi2Sr2Ca0.7Y0.3Cu1.96Co0.04OZ,79.0
Bi2Sr2Ca0.7Y0.3Cu1.92Co0.08OZ,41.0
Bi2Sr2Ca0.7Y0.3Cu1.88Co0.12OZ,12.0
Bi2Sr2Ca0.6Y0.4Cu2OZ,79.0
Bi2Sr2Ca0.6Y0.4Cu1.96Co0.04OZ,38.0
Bi2Sr2Ca0.6Y0.4Cu1.92Co0.08OZ,9.0
Bi1.6Sr0.4Yb1Cu3O6.35,37.0
Bi1.6Sr0.4Yb1Cu3O6.817,55.0
Bi1.6Sr0.4Yb1Cu3O6.999,82.0
Bi1.6Sr0.4Yb0.75Ca0.25Cu3O6.072,27.0
Bi1.6Sr0.4Yb0.65Ca0.35Cu3O6.075,43.0
Bi2Sr1.76La0.24Cu1O6,24.0
Bi2Sr1.7La0.3Cu1O6,30.0
Bi2Sr1.56La0.44Cu1O6,33.0
Bi2Sr1.43La0.57Cu1O6,28.5
Bi2Sr1.34La0.66Cu1O6,20.0
Ru1Sr2Gd1Cu2O8,37.0
Bi1.6Pb0.4Sr2Ca3Cu4OZ,108.0
Bi1.6Pb0.4Sr2Ca3Cu3.996Ag0.004OZ,108.4
Bi1.6Pb0.4Sr2Ca3Cu3.984Ag0.016OZ,108.4
Bi1.6Pb0.4Sr2Ca3Cu3.98Ag0.02OZ,107.5
Bi1.6Pb0.4Sr2Ca3Cu3.96Ag0.04OZ,107.5
Bi1.6Pb0.4Sr2Ca3Cu3.92Ag0.08OZ,108.2
Bi1.6Pb0.4Sr2Ca3Cu3.6Ag0.4OZ,107.3
Y1Ba2Cu3O6.6,60.0
Y1Ba2Cu3O6.6,92.0
Y1Ba2Cu3O6.1,92.0
Y1Ba2Cu3O6.9,93.0
Y1Ba2Cu3O6.6,69.0
Y1Ba2Cu3O6.7,80.0
Y1Ba2Cu3O6.7,93.0
Y1Ba2Cu3O6.1,90.0
Bi2Sr2Ca1Cu2O8+D,82.0
Bi2Sr2Ca0.8Y0.2Cu2O8+D,87.5
Bi2Sr2Ca0.57Y0.43Cu2O8+D,84.8
Bi1.6Pb0.4Sr2Ca0.8Y0.2Cu2O8+D,81.3
Hg0.7Pb0.3Ba2Ca2Cu3OY,127.0
Hg0.7Pb0.3Sr2Ca2Cu3OY,110.0
Ru1Sr2Gd1Cu2O8,36.0
Ru0.9Sn0.1Sr2Gd1Cu2O8,39.0
Ru0.8Sn0.2Sr2Gd1Cu2O8,48.0
Ru0.7Sn0.3Sr2Gd1Cu2O8,39.0
Ru0.6Sn0.4Sr2Gd1Cu2O8,31.0
La1.75Sr0.25Cu1O4,18.0
La1.7Sr0.3Cu1O4,10.0
Y1Ba2Cu3O7-D,93.1
Y1Ba2Cu3O7-D,88.2
Y1Ba2Cu3O6.78,69.2
Y1Ba2Cu2.982Zn0.018O6.78,56.0
Y1Ba2Cu2.961Zn0.039O6.78,42.9
La1.8Sr0.2Cu1O4,32.9
La1.8Sr0.2Cu0.99Zn0.01O4,26.4
La1.8Sr0.2Cu0.98Zn0.02O4,17.5
La1.8Sr0.2Cu0.96Zn0.04O4,4.6
La1.85Sr0.15Cu0.99Zn0.01O4,29.4
La1.85Sr0.15Cu0.98Zn0.02O4,13.8
La1.85Sr0.15Cu0.97Zn0.03O4,2.1
Y1Ba2Cu3O6.41,13.5
Y1Ba2Cu3O6.41,17.1
Y1Ba2Cu3O6.45,34.4
Y1Ba2Cu3O6.66,64.2
Y1Ba2Cu3O6.95,92.5
Ca5.84Sr4.02Bi0.14Cu15.84O29,72.0
La1Cu1O4,23.0
La1.9Sr0.1Cu1O4,23.0
Y1Ba2Cu3O6.95,93.0
Y1Ba2Cu2.9955Zn0.0045O6.95,90.0
Y1Ba2Cu2.9907Zn0.0093O6.95,88.0
La1.9Sr0.1Cu1O4,30.3
La1.85Sr0.15Cu1O4,38.4
La1.8Sr0.2Cu1O4,35.2
La1.78Sr0.22Cu1O4,28.1
Hg1Ba2Cu1O4.1,60.0
Y1Ba2Cu2.98Ni0.02O6.95,87.5
Y1Ba2Cu2.95Ni0.05O6.94,85.0
Y1Ba2Cu2.9Ni0.1O6.92,80.0
Y1Ba2Cu2.98Ni0.02O6.94,86.0
Y1Ba2Cu2.95Ni0.05O6.93,80.0
Y1Ba2Cu2.9Ni0.1O6.93,70.0
Y1Ba2Cu2.9Ni0.1O6.95,70.0
Y1Ba2Cu2.9Ni0.1O6.93,75.0
Y1Ba2Cu2.9Ni0.1O6.92,81.0
Eu1.5Ce0.5Sr2Cu1Ti1O10,22.0
C0.5Ba2Ca2Cu3.5OZ,67.0
C0.5Ba2Ca2Cu3.5OZ,88.0
C0.5Ba2Ca2Cu3.5OZ,107.0
C0.5Ba2Ca2Cu3.5OZ,118.0
C0.5Ba2Ca3Cu4.5OZ,112.0
C0.5Ba2Ca3Cu4.5OZ,111.0
C0.5Ba2Ca3Cu4.5OZ,108.0
C0.5Ba2Ca3Cu4.5OZ,102.0
Ru1Sr2Gd1Cu2OZ,35.0
Ru1Sr2Gd1Cu2OZ,45.1
Ru1Sr2Gd1Cu1.99Zn0.01OZ,37.0
Ru1Sr2Gd1Cu1.98Zn0.02OZ,30.0
Ru1Sr2Gd1Cu1.96Zn0.04OZ,12.8
Cu4.6C0.4Ba2Ca3O12+Z,117.0
Bi1.6Pb0.6Sr1.8Ca1Cu2OZ,65.0
Hg1Ba2Ca2Cu3O8+Z,131.0
Bi2Sr1.9La0.1Cu1O6+Z,20.0
Bi2Sr1.7La0.3Cu1O6+Z,28.0
Bi2Sr1.5La0.5Cu1O6+Z,28.0
Bi2Sr1.3La0.7Cu1O6+Z,20.0
Bi2Pr0.2Ca2.8Cu2O8+Z,72.5
Bi2Pr0.3Ca2.7Cu2O8+Z,67.0
Bi2Pr0.4Ca2.6Cu2O8+Z,37.5
Bi2Pr0.5Ca2.5Cu2O8+Z,30.0
Er1Ba2Cu3O6.93,91.0
Er1Ba2Cu2.97Zn0.03O6.93,81.0
Er1Ba2Cu2.94Zn0.06O6.92,69.0
Er1Ba2Cu2.88Zn0.12O6.92,52.0
Er1Ba2Cu2.82Zn0.18O6.91,50.0
Er1Ba2Cu2.76Zn0.24O6.89,36.0
Er1Ba2Cu2.7Zn0.3O6.86,32.0
Er1Ba2Cu2.97Fe0.03O6.94,88.0
Er1Ba2Cu2.94Zn0.03Fe0.03O6.94,76.0
Er1Ba2Cu2.91Zn0.06Fe0.03O6.93,63.0
Er1Ba2Cu2.85Zn0.12Fe0.03O6.94,50.0
Er1Ba2Cu2.78Zn0.18Fe0.03O6.93,46.0
Er1Ba2Cu2.73Zn0.24Fe0.03O6.92,43.0
Er1Ba2Cu2.91Fe0.09O6.96,83.0
Er1Ba2Cu2.88Zn0.03Fe0.09O6.95,65.0
Er1Ba2Cu2.85Zn0.06Fe0.09O6.96,46.0
Er1Ba2Cu2.79Zn0.12Fe0.09O6.95,42.0
Er1Ba2Cu2.73Zn0.18Fe0.09O6.94,37.0
Er1Ba2Cu2.67Zn0.24Fe0.09O6.94,32.0
Er1Ba2Cu2.82Fe0.18O6.97,72.0
Er1Ba2Cu2.79Zn0.03Fe0.18O6.97,44.0
Er1Ba2Cu2.76Zn0.06Fe0.18O6.97,25.0
Er1Ba2Cu2.7Zn0.12Fe0.18O6.95,23.0
Er1Ba2Cu2.64Zn0.18Fe0.18O6.95,21.0
Y1Ba2Cu3O6+Z,91.1
Y1Ba2Cu3O6.66,63.32
Y1Ba2Cu3O6.66,64.5
Sm1Ba-1Cu3O6.94,86.3
Sm1Ba1.9Pr0.1Cu3O6.99,56.4
Sm1Ba1.85Pr0.15Cu3O7.02,35.0
Sm1Ba1.8Pr0.2Cu3O7.04,26.5
Bi2Sr1.77La0.23Cu1O6+Z,31.5
Bi2Sr1.61La0.39Cu1O6+D,36.0
Bi2Sr1.51La0.49Cu1O6+D,33.5
Bi2Sr1.49La0.51Cu1O6+D,28.5
Bi2Sr1.34La0.66Cu1O6+D,24.0
Bi2Sr1.27La0.73Cu1O6+D,17.0
Ru1Sr2Gd1Cu2O8,45.0
Bi1.8Pb0.2Sr2Cu1OY,15.2
Bi1.8Pb0.2Sr1.9La0.1Cu1OY,20.2
Bi1.8Pb0.2Sr1.8La0.2Cu1OY,21.2
Bi1.8Pb0.2Sr1.7La0.3Cu1OY,27.4
Bi1.8Pb0.2Sr1.55La0.45Cu1OY,28.3
Bi1.8Pb0.2Sr1.45La0.55Cu1OY,28.6
Bi1.8Pb0.2Sr1.4La0.6Cu1OY,28.3
Bi1.8Pb0.2Sr1.35La0.65Cu1OY,27.8
Bi1.8Pb0.2Sr1.25La0.75Cu1OY,26.9
Bi1.8Pb0.2Sr1.2La0.8Cu1OY,24.9
Hg0.95Re0.05Ba2Ca2Cu3O8+D,132.52
Hg0.9Re0.1Ba2Ca2Cu3O8+D,132.62
Hg0.85Re0.15Ba2Ca2Cu3O8+D,132.92
Hg0.82Re0.18Ba2Ca2Cu3O8+D,133.12
Hg0.8Re0.2Ba2Ca2Cu3O8+D,133.12
Hg0.75Re0.25Ba2Ca2Cu3O8+D,132.72
La1.78Sr0.22Cu1O4,28.7
La1.78Sr0.22Cu0.99Ni0.01O4,21.2
La1.78Sr0.22Cu0.98Ni0.02O4,17.4
Hg1Ba2Cu1O4+Z,72.0
Hg1Ba2Cu1O4+Z,83.0
Hg1Ba2Cu1O4+Z,97.0
Hg1Ba2Cu1O4+Z,92.0
Hg1Ba2Cu1O4+Z,86.0
Bi2Sr2Ca1Cu2O8+Z,92.4
Bi2Sr2Ca1Cu1.988Zn0.012O8+Z,84.5
Bi2.1Sr1.74La0.16Cu1O6+Z,7.5
Bi2.1Sr1.74La0.16Cu1O6+Z,9.03
Bi2.1Sr1.63La0.27Cu1O6+Z,15.1
Bi2.1Sr1.63La0.27Cu1O6+Z,14.1
Bi2.1Sr1.58La0.32Cu1O6+Z,15.0
Bi2.1Sr1.58La0.32Cu1O6+Z,13.5
Bi2.1Sr1.55La0.32Cu1O6+Z,12.1
Bi2.1Sr1.55La0.35Cu1O6+Z,12.0
Bi2.1Sr1.55La0.35Cu1O6+Z,8.0
Bi2.1Sr1.55La0.35Cu1O6+Z,5.95
Bi2.1Sr1.37La0.53Cu1O6+Z,18.1
Bi2.1Sr1.37La0.53Cu1O6+Z,17.1
Bi2.1Sr1.37La0.53Cu1O6+Z,12.3
Bi2.1Sr1.15La0.75Cu1O6+Z,15.1
La1.925Ba0.075Cu1O4+Z,34.0
La1.9Ba0.1Cu1O4+Z,38.0
La1.89Ba0.11Cu1O4+Z,38.0
La1.88Ba0.12Cu1O4+Z,39.0
La1.875Ba0.125Cu1O4+Z,6.0
La1.875Ba0.125Cu1O4+Z,40.0
La1.87Ba0.13Cu1O4+Z,41.0
La1.86Ba0.14Cu1O4+Z,42.0
La1.85Ba0.15Cu1O4+Z,8.0
La1.85Ba0.15Cu1O4+Z,43.0
La1.8Ba0.2Cu1O4+Z,38.0
La1.75Ba0.25Cu1O4+Z,29.0
La1.7Ba0.3Cu1O4+Z,16.0
Pr1.5Ce0.5Sr2Cu2Nb1O10,28.0
Nd1Ba2Cu3O7-Z,93.8
Nd1Ba2Cu3O7-Z,94.5
Nd1Ba2Cu3O7-Z,95.0
Bi2Sr1.75La0.25Cu1O6+Z,27.5
Hg1Ba2Cu1O4.05,73.5
Hg1Ba2Cu1O4.15,96.8
Hg1Ba2Cu1O4.18,96.6
Hg1Ba2Cu1O4.2,94.2
Hg0.9Re0.1Ba2Cu1O4.33,87.2
Hg0.9Re0.1Ba2Cu1O4.35,90.5
Hg0.9Re0.1Ba2Cu1O4.41,94.5
Hg0.9Re0.1Ba2Cu1O4.42,93.8
Hg0.85Re0.15Ba2Cu1O4.49,93.7
Hg0.85Re0.15Ba2Cu1O4.52,94.8
Hg0.85Re0.15Ba2Cu1O4.55,93.7
Hg0.85Re0.15Ba2Cu1O4.58,34.7
Hg0.85Re0.15Ba2Cu1O4.53,96.3
La1.9Sr0.1Cu1O4.01,29.0
La1.85Sr0.15Cu1O3.99,33.0
La1.8Sr0.2Cu1O3.95,29.0
La1.75Sr0.25Cu1O3.93,15.0
Y1Ba2Cu3O6.4,35.0
Y1Ba2Cu3O6.56,59.0
Y1Ba2Cu3O6.65,67.0
Y1Ba2Cu3O6.73,78.0
Y1Ba2Cu2.95Zn0.05O6.47,18.0
Y1Ba2Cu2.95Zn0.05O6.52,23.0
Y1Ba2Cu2.95Zn0.05O6.56,24.0
Y1Ba2Cu2.95Zn0.05O6.62,21.0
Y1Ba2Cu2.95Zn0.05O6.63,25.0
Y1Ba2Cu2.95Zn0.05O6.69,25.0
Y1Ba2Cu2.95Zn0.05O6.7,25.0
Y1Ba2Cu2.95Zn0.05O6.72,35.0
Y1Ba2Cu2.95Zn0.05O6.75,48.0
Y1Ba2Cu2.95Zn0.05O6.8,60.0
Tl2Ba2Cu1O6,25.0
Y1Ba2Cu3O6.63,76.0
Y1Ba2Cu2.97Zn0.03O6.63,45.0
Y1Ba2Cu2.94Zn0.06O6.63,30.0
Y1Ba2Cu3O6.93,90.0
Y1Ba2Cu2.97Zn0.03O6.93,82.0
Y1Ba2Cu2.94Zn0.06O6.93,75.0
Y1Ba2Cu2.91Zn0.09O6.93,55.0
Y1Ba2Cu3O6.68,15.0
Y1Ba2Cu2.94Zn0.06O6.68,25.0
Y1Ba2Cu2.91Zn0.09O6.68,60.0
Y1Ba2Cu3O6.73,62.0
Y1Ba2Cu2.94Zn0.06O6.73,35.0
Y1Ba2Cu2.91Zn0.09O6.73,25.0
Y1Ba2Cu3O6.83,90.0
Y1Ba2Cu2.94Zn0.06O6.83,55.0
Y1Ba2Cu2.91Zn0.09O6.83,45.0
La1.85Sr0.15Cu0.98Zn0.02O4,20.0
La1.85Sr0.15Cu0.995Zn0.005O4,30.0
La1.85Sr0.15Cu0.99Zn0.01O4,28.0
La1.85Sr0.15Cu0.985Zn0.015O4,22.0
La1.8Sr0.2Cu0.99Zn0.01O4,27.0
La1.8Sr0.2Cu0.98Zn0.02O4,22.0
La1.75Ca0.15Nd0.1Cu1O4,30.5
La1.65Ca0.15Nd0.2Cu1O4,30.0
La1.55Ca0.15Nd0.3Cu1O4,28.0
La1.45Ca0.15Nd0.4Cu1O4,27.5
La1.35Ca0.15Nd0.5Cu1O4,26.0
La1.25Ca0.15Nd0.6Cu1O4,25.0
La1.05Ca0.15Nd0.8Cu1O4,24.5
La0.85Ca0.15Nd1Cu1O4,23.0
La1.92Ca0.08Cu1O4,16.0
La1.91Ca0.09Cu1O4,20.0
La1.9Ca0.1Cu1O4,22.0
La1.89Ca0.11Cu1O4,23.0
La1.885Ca0.115Cu1O4,23.0
La1.88Ca0.12Cu1O4,24.0
La1.875Ca0.125Cu1O4,26.0
La1.87Ca0.13Cu1O4,28.0
La1.86Ca0.14Cu1O4,32.0
La1.85Ca0.15Cu1O4,34.0
La1.84Ca0.16Cu1O4,34.0
La1.83Ca0.17Cu1O4,34.0
La1.82Ca0.18Cu1O4,33.0
La1.81Ca0.19Cu1O4,32.0
La1.8Ca0.2Cu1O4,30.0
Y1Ba2Cu3OZ,53.0