composition,critical_temperature_tc
Tl2.5Nd1Sr2Cu2.5OX,28.575
Tl2.5Pb0.2Nd1Sr2Cu2.5OX,36.48
Tl2.5Pb0.5Nd1Sr2Cu2.5OX,39.87
Tl2.5Pb0.6Nd1Sr2Cu2.5OX,39.785
Tl2.5Pb0.7Nd1Sr2Cu2.5OX,36.585
Tl2.5Pb1Nd1Sr2Cu2.5OX,41.26
Tl2.5Pb0.3Pr1Sr2Cu2.5OX,39.06
Tl2.5Pb0.5Pr1Sr2Cu2.5OX,27.89
Tl2.5Pb0.65Pr1Sr2Cu2.5OX,30.28
Tl2.5Pb0.8Pr1Sr2Cu2.5OX,27.81
Tl2.5Pb1Pr1Sr2Cu2.5OX,39.22
Y1Ba2Cu2.98Ni0.02O7,91.6
Y1Ba2Cu2.95Ni0.05O7,90.6
Y1Ba2Cu2.9Ni0.1O7,83.0
Y1Ba2Cu2.8Ni0.2O7,79.4
Y1Ba2Cu2.6Ni0.4O7,71.0
Bi2Ca1Sr2Cu2O8,88.0
Ba1Y0.67La0.33Cu1.8Li0.2OX,90.0
Tl1.5Pb0.3Nd2Sr2Cu2OX,37.5
Tl1.5Pb0.5Nd2Sr2Cu2OX,37.9
Tl1.5Pb0.7Nd2Sr2Cu2OX,30.45
Tl1.5Pb1Nd2Sr2Cu2OX,44.1
Tl1.5Pb0.5Sm2Sr2Cu2OX,23.6
Tl1.5Pb0.5Pr2Sr2Cu2OX,16.7
Tl1.5Nd1Sr2Cu3OX,36.1
Tl1.5Nd2Sr2Cu3OX,29.8
Tl1.5Pb0.5Nd1Sr2Cu3OX,39.6
Tl1.5Pb0.5Nd2Sr2Cu3OX,38.8
Tl1.5Nd2Sr2Cu2OX,28.65
Nd1.85Ce0.15Cu1O3.93,24.0
Pr1.85Ce0.15Cu1O4-X,17.0
Sm1.85Ce0.15Cu1O4-X,15.0
Y1Ba2Cu2.6Ni0.4O7,58.0
Sm1La0.75Sr0.25Cu1O3.95,20.0
Bi1Sr1Cu1OY,6.7
Bi1.95La0.05Sr1Cu1OY,20.0
La1.85Sr0.15Cu1O4-Z,35.0
La1.8Ba0.2Cu1O4,29.0
La1.8Sr0.2Cu1O4,36.0
La1.92Sr0.08Cu1OZ,21.8
La1.88Sr0.12Cu1OZ,30.3
La1.84Sr0.16Cu1OZ,38.0
La1.8Sr0.2Cu1OZ,32.7
La1.76Sr0.24Cu1OZ,18.7
La1.91Sr0.09Cu1O4,11.0
Y1Ba2Cu3O6.7,85.4
La1.8Ba0.2Cu1O4-Y,28.0
La2Cu1O4-Y,33.0
Tl2Ba2Ca2Cu3OX,119.0
Bi2Sr2Ca2Cu2OX,84.0
La1.925Sr0.075Cu1O4,21.2
La1.887Sr0.113Cu1O4,29.7
La1.812Sr0.188Cu1O4,34.4
La1.775Sr0.225Cu1O4,23.0
La1.737Sr0.263Cu1O4,8.0
Y2Ba4Cu7O15-X,55.0
Eu2Ba4Cu7O15-X,45.0
Gd2Ba4Cu7O15-X,45.0
Dy2Ba4Cu7O15-X,50.0
Ho2Ba4Cu7O15-X,55.0
Er2Ba4Cu7O15-X,55.0
Ba0.77K0.23Bi1O3,28.0
Ba0.7K0.75Bi1OY,29.0
Ba0.9K0.2Bi1O3-Z,20.0
Ba0.9K0.24Bi1O3-Z,22.0
Ba0.9Rb0.2Bi1O3-Z,15.0
Ba0.6K0.4Bi1O3-Z,26.0
Sm1Ba2Cu3O6.941,90.7
Sm1Ba2Cu3O7,95.5
Sm1Ba2Cu3O6.927,88.1
Sm1Ba2Cu3O6.9,87.0
Sm1Ba2Cu3O6.878,91.1
Sm1Ba2Cu3O6.813,83.6
Sm1Ba2Cu3O6.773,87.8
Sm1Ba2Cu3O6.734,67.6
Sm1Ba2Cu3O6.709,59.8
Sm1Ba2Cu3O6.554,44.7
Y1Ba2Cu3OZ,90.53
La1Ba2Cu3OZ,47.73
Nd1Ba2Cu3OZ,87.63
Sm1Ba2Cu3OZ,92.33
Eu1Ba2Cu3OZ,93.83
Dy1Ba2Cu3OZ,91.23
Ho1Ba2Cu3OZ,89.43
Er1Ba2Cu3OZ,91.1
Tm1Ba2Cu3OZ,90.1
Bi2Sr2Ca1Cu2O8-X,83.0
Bi2Sr2Ca1Cu2O8-X,25.0
Nd1.85Ce0.15Cu1O4-Y,20.9
Y1Ba2Cu3O7,91.5
Bi2Sr2Ca1Cu2OZ,82.0
Y1Ba1.9Ca0.1Cu3O6.84,85.0
Y1Ba1.9Sr0.1Cu3O6.89,89.0
Y1Ba2Cu2.975Zn0.025O6.93,82.8
Y1Ba2Cu2.95Zn0.05O6.94,73.9
Y1Ba2Cu2.925Zn0.075O6.94,65.0
Y1Ba2Cu2.9Zn0.1O6.94,56.9
Y1Ba2Cu2.8Zn0.2O6.88,54.7
Y1Ba2Cu2.7Zn0.3O6.92,47.2
Y1Ba2Cu2.97Fe0.03O7-Z,91.0
Y1Ba2Cu2.82Fe0.18O7-Z,72.2
Y0.9Er0.1Ba1.9Sr0.1Cu3O7-Z,88.0
Y0.9Ho0.1Ba2Cu3O7-Z,60.0
Y1Ba2Cu2.975Zn0.025O6.85,72.85
Y1Ba2Cu2.95Zn0.05O6.85,66.19
Y1Ba2Cu2.925Zn0.075O6.85,63.6
Y1Ba2Cu2.9Zn0.1O6.85,50.08
Y1Ba2Cu2.85Zn0.15O6.85,47.6
Y1Ba2Cu2.8Zn0.2O6.85,30.69
Y1Ba2Cu2.8Ni0.2O7,63.5
Y1Ba2Cu2.88Ni0.12O7,74.3
Y1Ba2Cu2.75Ni0.25O7,54.0
Y1Ba2Cu2.72Ni0.28O7,51.0
Y1Ba2Cu2.89Co0.11O7,64.0
Y1Ba2Cu2.82Co0.18O7,46.0
Bi2Sr2Ca1Cu2OX,86.0
Y1Ba2Cu3O7-z,89.5
Y1Ba2Cu3O7-Z,81.0
Bi2Sr2Ca1Cu2O8,90.0
Y1Ba1.9K0.1Cu3O6.9,91.5
La1.8Sr0.2Cu1O4,37.2
Y1Ba2Cu3O7-Z,90.5
Tl2Ba2Ca2Cu3OX,125.0
Tl2Ba2Ca1Cu2OX,101.0
Tl2Ba2Cu1OX,10.0
Y1Ba2Cu3O7,91.4
Y1Ba2Cu2.97Fe0.03O7,91.2
Y1Ba2Cu2.94Fe0.06O7,89.3
Y1Ba2Cu2.88Fe0.12O7,77.3
Y1Ba2Cu3O7,90.5
Y1Ba2Cu3O7,95.0
Y1.1Ba1.9Cu3O7-Z,91.0
Y1Ba2Cu3O6.5,50.0
Y1Ba2Cu3O6.92,91.0
Y1Ba2Cu3O6.66,50.0
Y1Ba2Cu3O6.95,91.0
La1.8Sr0.2Cu1O4-Z,35.0
Gd1Ba2Cu3O7-Z,92.7
Gd1Ba2Cu3O7-Z,49.0
Gd1Ba2Cu2.925Fe0.075O7-Z,81.3
Gd1Ba2Cu2.85Fe0.15O7-Z,63.1
Gd1Ba2Cu2.7Fe0.3O7-Z,2.9
Y1Ba2Cu3O7-Z,88.9
Y1Ba2Cu3O7-Z,89.2
Y1Ba2Cu3O7-Z,90.1
Bi4.1Sr2.4Ca2.4Cu4OX,75.0
Y0.9Ba2.1Cu3O7-Z,92.0
Y1.1Ba1.9Cu3O7-Z,92.0
Ba0.6K0.4Bi1O3,27.0
La1.8Ba0.2Cu1O4-Y,31.0
La1.8Sr0.2Cu1O4-Z,32.5
Bi1.7Pb0.2Sb0.1Sr2Ca2Cu3OZ,116.0
Bi1.6Pb0.3Sb0.1Sr2Ca2Cu3OZ,116.0
Bi1.5Pb0.4Sb0.1Sr2Ca2Cu3OZ,110.0
Bi1.4Pb0.5Sb0.1Sr2Ca2Cu3OZ,109.0
La1.8Sr0.2Cu1O4,41.5
La1.85Ba0.15Cu1O4,29.0
Y1Ba2Cu3O7-Z,88.5
Tl2Ba2Ca2Cu3O10+Z,105.0
Bi2Sr2Ca1Cu2O8,98.0
Bi2Sr2Ca6Cu8O19,80.0
Bi2Sr2Ca1Cu2O8,84.0
Bi2Sr2Ca2Cu4O11,95.0
Tl1Ba1Ca1Cu2O5.5,114.0
Bi2.15Sr1.68Ca1.17Cu2O8,80.0
Tl2Ba2Ca1Cu2O7.876,110.0
Tl2Ba2Ca1Cu2O7.833,112.0
Tl2Ba2Ca1Cu2O8,87.0
Tl2Ba2Ca1Cu2O7.984,92.0
Tl2Ba2Ca1Cu2O7.978,95.0
Tl2Ba2Ca1Cu2O7.958,107.0
Tl2Ba2Ca1Cu2O7.946,107.0
Tl2Ba2Ca2Cu3O10,115.0
Tl2Ba2Ca2Cu3O9.964,112.0
Tl2Ba2Ca2Cu3O9.877,111.0
Tl2Ba2Ca2Cu3O9.841,110.0
Bi2Sr2Ca1Cu2O8,85.0
Tl0.5Pb0.5Ca0.8Er0.2Sr2Cu2OX,110.0
Tl2Ba2Ca2Cu3O10+Z,110.0
Tl2Ba2Cu1O5.989,10.0
Y1Ba2Cu3O6.29,21.9
Y1Ba2Cu3O6.34,23.5
Y1Ba2Cu3O6.43,26.4
Y1Ba2Cu3O6.5,50.1
Y1Ba2Cu3O6.54,54.0
Y1Ba2Cu3O6.58,56.3
Y1Ba2Cu3O6.64,59.7
Y1Ba2Cu3O6.72,85.0
Y1Ba2Cu3O6.8,93.9
Y1Ba2Cu3O6.87,93.2
Tl2Ba2Cu1O5.957,38.0
Tl2Ba2Cu1O5.947,50.0
Tl2Ba2Cu1O5.943,56.0
Tl2Ba2Ca1Cu2O7.984,90.0
Tl2Ba2Cu1O5.94,58.0
Tl2Ba2Cu1O5.929,70.0
Tl2Ba2Cu1O5.912,82.0
Tl2Ba2Cu1O5.876,87.0
Tl2Ba2Cu1O5.963,53.0
Tl2Ba2Cu1O6,50.0
Bi1.6Pb0.3Sb0.1Sr2Ca2Cu3O10,109.0
Ho1Ba2Cu4O8,78.5
Ho1Ba2Cu4O8,77.0
Ho0.95Ca0.05Ba2Cu4O8,81.0
Ho0.9Ca0.1Ba2Cu4O8,87.0
Ho0.85Ca0.15Ba2Cu4O8,87.0
Ho0.8Ca0.2Ba2Cu4O8,87.0
Ho0.7Ca0.3Ba2Cu4O8,87.0
Y1Ba2Cu4O8,81.0
Y0.95Ca0.05Ba2Cu4O8,84.0
Y0.9Ca0.1Ba2Cu4O8,89.5
Y0.85Ca0.15Ba2Cu4O8,90.0
Y0.8Ca0.2Ba2Cu4O8,90.0
Y0.7Ca0.3Ba2Cu4O8,90.0
La1.8Sr0.2Cu1O4-Z,34.0
Bi1.85Pb0.35Sr1.9Ca2.1Cu3.1OY,112.0
Y1Ba2Cu3O7-Z,89.5
Bi4Sr4Ca2Cu4O16.25,82.4
Bi4Sr4Ca1.9Tm0.1Cu4O16.28,83.9
Bi4Sr4Ca1.8Tm0.2Cu4O16.38,83.9
Bi4Sr4Ca1.5Tm0.5Cu4O16.5,84.3
Bi4Sr4Ca1Tm1Cu4O16.67,37.7
Bi4Sr4Ca0.5Tm1.5Cu4O16.91,1.5
Bi4Sr4Ca1.5Eu0.5Cu4O16+Y,84.3
Bi4Sr4Ca1Eu1Cu4O16+Y,28.5
Bi4Sr4Ca0.5Eu1.5Cu4O16+Y,1.5
Bi4Sr4Ca1.5Er0.5Cu4O16+Y,84.3
Bi4Sr4Ca1Er1Cu4O16+Y,32.9
Bi4Sr4Ca0.5Er1.5Cu4O16+Y,1.5
Bi4Sr4Ca1.5Ho0.5Cu4O16+Y,84.3
Bi4Sr4Ca1Ho1Cu4O16+Y,40.7
Bi4Sr4Ca0.5Ho1.5Cu4O16+Y,1.5
Bi4Sr4Ca3Cu4O16.29,81.0
Bi4Sr3Ca2.9Tm0.1Cu4O16.36,80.0
Bi4Sr3Ca2.8Tm0.2Cu4O16.41,83.0
Bi4Sr3Ca2.5Tm0.5Cu4O16.52,81.0
Bi4Sr3Ca2Tm1Cu4O16.73,46.5
Bi1.7Pb0.3Sr2Ca0.7Y0.3Cu2O8.25,71.0
Bi1.7Pb0.3Sr2Ca0.7Y0.3Cu2O8.25,72.0
Bi1.7Pb0.3Sr2Ca0.7Y0.3Cu2O8.26,73.0
Tl5Ba5Ca2Cu6OX,106.0
Y1Ba2Cu2.97Fe0.03O7-Z,84.0
Bi2Sr2Ca2Cu3OX,105.7
Y1Ba2Cu2.895Fe0.105O7-Z,63.0
Y1Ba2Cu2.901Co0.099O7-Z,70.0
Y1Ba2Cu2.955Zn0.045O7-Z,67.0
Y1Ba2Cu2.82Zn0.18O7-Z,35.0
Y1Ba2Cu2.94Ni0.06O7-Z,83.0
Tl2Ba2Ca1Cu2O8,113.1
Bi2Sr2Ca1Cu2O8+X,85.0
Bi2Sr2Ca1Cu2O8+X,82.0
Tl1Ba1.2La0.8Cu1O5,52.0
Bi2Sr2Ca1Cu2O8+X,80.0
Bi2Sr1.5Ca1.5Cu2O8.19,83.0
Bi2Sr1.5Ca1.5Cu2O8.22,73.0
Bi2Sr1.5Ca1.5Cu2O8.25,67.0
Bi2Sr2Ca1Cu2O8+X,83.0
Bi2Sr2Ca1Cu2O8+X,68.0
Bi2Sr2Ca1Cu2O8+X,64.0
Bi2Sr2Ca0.5Y0.5Cu2O8.33,40.0
Bi2Sr2Ca1Cu2O8.23,70.0
Bi2Sr2Ca0.9Y0.1Cu2O8.23,90.0
Bi2Sr2Ca0.7Y0.3Cu2O8.3,86.0
Bi2Sr2Ca0.65Y0.35Cu2O8.3,74.0
Bi2Sr2Ca0.6Y0.4Cu2O8.29,64.0
Er1Ba2Cu3O7,92.0
Tm1Ba2Cu3OZ,92.0
Gd1Ba2Cu3OZ,91.1
Dy1Ba2Cu3OZ,91.8
Ho1Ba2Cu3OZ,92.4
Er1Ba2Cu3OZ,92.5
Tm1Ba2Cu3OZ,91.8
Y1Ba2Cu4O7.8,77.5
Y1Ba1.9Sr0.1Cu4O7.9,78.0
Y1Ba1.8Sr0.2Cu4O7.9,78.0
Y1Ba1.6Sr0.4Cu4O7.9,79.0
Eu2.67Ce1.33La1.33Ba1.33Sr1.33Cu6OZ,28.5
Dy2.67Ce1.33La1.33Ba1.33Sr1.33Cu6OZ,6.0
Y1Ba1.4Sr0.6Cu4O7.8,78.5
Y1Ba1.2Sr0.8Cu4O7.9,79.0
Y1Ba2Cu3O6.9,92.5
Y1Ba1.8Sr0.2Cu3O6.8,90.5
Y1Ba2Cu3O7,93.4
Y0.95Ca0.05Ba1.6Sr0.4Cu4O7.8,82.0
Y0.9Ca0.1Ba1.6Sr0.4Cu4O7.8,85.5
Y1Ba1.6Sr0.4Cu3O6.8,88.5
Y1Ba1.4Sr0.6Cu3O6.8,86.0
Y1Ba1.2Sr0.8Cu3O6.8,86.0
Y1Ba1Sr1Cu3O6.8,83.5
Y1Ba0.8Sr1.2Cu3O6.8,82.0
Y1Ba2Cu4O7.96,86.0
Nd1.85Ce0.15Cu1O4-Z,18.4
Nd1.85Th0.15Cu1O4-Z,15.9
Sm1.85Ce0.15Cu1O4-Z,21.1
Pr1.85Ce0.15Cu1O4-Z,22.4
Pr1.85Th0.15Cu1O4-Z,15.5
Bi2Sr2Ca1Cu2O8.11,86.4
Bi2Sr2Ca1Cu2O8.16,92.7
Bi2Sr2Ca1Cu2O8.19,88.0
Bi2Sr2Ca1Cu2O8.22,78.5
Tl2Ba2Cu1O6.1,92.4
Tl2Ba2Cu1O6.12,87.8
Tl2Ba2Cu1O6.16,64.9
Tl2Ba2Cu1O6.19,45.3
Y1Ba2Cu4O7.986,80.0
Y1Ba2Cu3OZ,92.4
Dy1Ba2Cu3OZ,92.1
Bi4Sr3Ca2Y1Cu4O16,43.5
Bi4Sr3Ca1.6Y1.4Cu4O16,79.8
Bi4Sr3Ca1.5Y1.5Cu4O16,86.1
Bi4Sr3Ca1.4Y1.6Cu4O16,85.8
Bi4Sr3Ca1.2Y1.8Cu4O16,79.3
Bi4Sr3Ca1Y2Cu4O16,64.1
Bi2Sr2Ca0.5Y0.5Cu2O8,41.0
Bi2Sr2Ca0.6Y0.4Cu2O8,62.7
Bi2Sr2Ca0.7Y0.3Cu2O8,81.4
Bi2Sr2Ca0.75Y0.25Cu2O8,89.4
Nd1Ba2Cu3O6.84,93.0
Nd1.1Ba1.9Cu3O6.9,92.0
Nd1.2Ba1.8Cu3O6.96,80.0
Nd1.3Ba1.7Cu3O7,69.0
Nd1.4Ba1.6Cu3O7.09,38.0
Nd1.5Ba1.5Cu3O7.14,20.0
Bi2Sr2Ca0.8Y0.2Cu2O8,89.6
Bi2Sr2Ca0.9Y0.1Cu2O8,76.0
Bi2Sr2Ca1Cu2O8,71.8
La1.91Ba0.09Cu1O4,28.8
La1.87Ba0.13Cu1O4,4.2
La1.84Ba0.16Cu1O4,28.8
La1.78Ba0.22Cu1O4,32.0
La1.85Sr0.15Cu1O4,36.4
Y1Ba2Cu3O6.7,60.0
Gd1Ba2Cu2.925Zn0.075Oz,54.0
Gd1Ba2Cu2.85Zn0.15Oz,37.0
Gd1Ba2Cu2.775Zn0.225Oz,35.0
Gd1Ba2Cu3OZ,91.0
Gd1Ba2Cu2.925Ni0.075OZ,79.0
Gd1Ba2Cu2.85Ni0.15OZ,71.0
Gd1Ba2Cu2.775Ni0.225OZ,65.0
Ba0.5K0.5Bi1O3,24.0
Bi1.7Pb0.3Sr2Ca3Cu4OZ,110.0
Y1Ba2Cu3O7-Z,93.0
Bi2.05Pb0.05Sr1.9Cu1OY,9.4
Bi2Pb0.1Sr1.9Cu1OY,8.4
Bi1.95Pb0.15Sr1.9Cu1OY,6.4
Bi1.9Pb0.2Sr1.9Cu1OY,4.7
Ho1Ba2Cu3O7,95.0
Dy1Ba2Cu3O7-Z,90.0
Y1Ba2Cu2.88Fe0.12OZ,76.1
Y1Ba2Cu3O7-Y,84.0
Y1Ba2Cu3O9-Y,90.0
Y1Ba2Cu3O7-Y,90.0
Y1Ba2Cu3.85O6.85,93.0
La1.83Sr0.17Cu1O4,37.0
La1.8Ba0.2Cu1O4-Y,25.6
La1.84Sr0.16Cu1O4-Y,38.5
La1.85Sr0.15Cu1O4,32.0
La1.85Sr0.15Cu1O4-Y,36.0
La1.85Sr0.15Cu1O4-Y,35.9
La1.85Ba0.15Cu1O4,28.0
La1.85Sr0.15Cu1O4-Y,40.0
La1.825Sr0.175Cu1O4,36.0
La1.8Sr0.2Cu1O4,30.0
La1.85Sr0.15Cu1O4,34.0
La1.85Sr0.15Cu1O4-Y,37.0
La1.85Sr0.15Cu1O4-Y,33.0
La1.85Ca0.15Cu1O4,17.0
La1.89Sr0.11Cu1O4,10.0
La1.85Sr0.15Cu1O4,33.0
Nd1.85Th0.15Cu1O4-Y,18.0
Nd1.85Ce0.15Cu1O4-Y,23.0
Y1Ba2Cu3O7-Y,92.4
Y1Ba2Cu3O9-Y,89.0
Y1Ba2Cu3O7,89.0
Bi2Sr2Ca1Cu2O8,88.0
Y1Ba2Cu3O7,85.0
Bi2Sr2Ca1Cu2O8,80.0
Y1Ba2Cu3O7,88.0
Y1Ba2Cu3O7,83.0
Y1Ba2Cu3O7-Y,94.0
Y1Ba2Cu3O7-Y,93.0
Y1Ba2Cu2.88Fe0.12O7-Z,77.3
Y1Ba2Cu2.85Fe0.15O7-Z,73.7
Y1Ba2Cu2.775Fe0.225O7-Z,57.6
Y1Ba2Cu2.7Fe0.3O7.15,36.0
Bi1.6Pb0.4Sr2Cu2.95Mo0.05OY,107.1
Bi1.6Pb0.4Sr2Cu2.9Mo0.1OY,107.0
Bi1.6Pb0.4Sr2Cu2.85Mo0.15OY,98.5
Bi1.6Pb0.4Sr2Cu2.8Mo0.2OY,98.4
Bi1.6Pb0.4Sr2Cu2.75Mo0.25OY,96.9
Bi1.6Pb0.4Sr2Cu2.7Mo0.3OY,96.9
Y1Ba2Cu2Pb1OX,90.0
Ba0.6K0.4Bi1O3,16.0
Tl1Sr1.3Nd0.7Ca1Cu2O7,81.0
Tl0.5Pb0.5Sr2Ca1Cu2O7,85.0
Y1Ba2Cu3O7-Z,89.8
Y1Ba2Cu2.985Fe0.015O7-Z,90.0
Y1Ba2Cu2.97Fe0.03O7-Z,89.2
Y1Ba2Cu2.955Fe0.045O7-Z,86.7
Y1Ba2Cu2.94Fe0.06O7-Z,86.4
Y1Ba2Cu2.925Fe0.075O7-Z,86.4
Y1Ba2Cu2.91Fe0.09O7-Z,82.8
Y1Ba2Cu3OZ,90.71
Y1Ba2Cu3O7-Z,88.8
Y1Ba2Cu3OY,92.0
Y1Ba2Cu2.85Ag0.15OY,91.3
Y1Ba2Cu2.7Ag0.3OY,90.2
Y1Ba2Cu2.55Ag0.45OY,87.6
Bi2Sr2Ca1Cu1O8+Y,77.0
Bi2Sr2Ca1Cu0.995Fe0.005O8+Y,77.0
Bi2Sr2Ca1Cu0.98Fe0.02O8+Y,66.0
Bi2Sr2Ca1Cu0.95Fe0.05O8+Y,52.0
Bi1.84Pb0.34Sr1.91Ca2.03Cu3OX,107.0
Bi1.6Pb0.3Sb0.1Sr2Ca2Cu3OX,109.6
Bi1.8Pb0.2Sr2Ca2Cu3OX,107.0
Bi3.7Pb0.3Sr3Ca3Cu4OX,107.0
Ba0.6K0.4Bi1O3,18.0
Y1Ba2Cu2.85Zn0.15O6.97,39.0
Y1Ba2Cu2.85Zn0.15O6.9,32.5
Y1Ba2Cu2.79Zn0.21O6.97,14.2
Y1Ba2Cu2.94Zn0.06O6.97,67.6
Y1Ba2Cu2.94Zn0.06O6.9,67.1
Y1Ba2Cu2.94Zn0.06O6.76,41.1
Y1Ba2Cu2.94Zn0.06O6.59,18.6
Y1Ba2Cu2.97Zn0.03O6.97,79.1
Y1Ba2Cu2.97Zn0.03O6.9,81.0
Y1Ba2Cu2.97Zn0.03O6.76,61.4
Y1Ba2Cu2.97Zn0.03O6.59,38.7
Y1Ba2Cu2.97Zn0.03O6.47,29.8
Y1Ba2Cu2.97Zn0.03O6.85,77.0
Y1Ba2Cu2.97Zn0.03O6.67,39.8
Y1Ba2Cu2.94Zn0.06O6.84,60.8
Y1Ba2Cu2.94Zn0.06O6.65,18.9
Y1Ba2Cu2.94Zn0.06O6.59,18.9
Y1Ba2Cu3O6.97,91.6
Y1Ba2Cu3O6.9,94.1
Y1Ba2Cu3O6.76,82.0
Y1Ba2Cu3O6.59,61.2
Y1Ba2Cu3O6.47,51.4
Y1Ba2Cu3O6.66,68.0
Y1Ba2Cu3O6.33,18.6
Y1Ba2Cu2.94Ni0.06O6.97,85.0
Y1Ba2Cu2.94Ni0.06O6.9,86.3
Y1Ba2Cu2.94Ni0.06O6.78,64.6
Y1Ba2Cu2.94Ni0.06O6.6,40.1
Y1Ba2Cu2.94Ni0.06O6.47,23.0
Y1Ba2Cu2.94Ni0.06O6.7,47.4
Y1Ba2Cu2.94Ni0.06O6.64,43.1
Y1Ba2Cu2.94Ni0.06O6.56,37.5
Y1Ba2Cu2.85Ni0.15O6.97,77.2
Y1Ba2Cu2.85Ni0.15O6.9,73.0
Y1Ba2Cu2.85Ni0.15O6.78,41.3
Y1Ba2Cu2.7Ni0.3O6.97,60.4
Y1Ba2Cu2.7Ni0.3O6.9,46.0
Pb2Sr2Y0.85Ca0.15Cu3O8+Z,46.0
Pb2Sr2Y0.8Ca0.2Cu3O8+Z,58.9
Pb2Sr2Y0.75Ca0.25Cu3O8+Z,70.6
Pb2Sr2Y0.7Ca0.3Cu3O8+Z,76.8
Pb2Sr2Y0.65Ca0.35Cu3O8+Z,79.1
Pb2Sr2Y0.6Ca0.4Cu3O8+Z,79.1
Pb2Sr2Y0.55Ca0.45Cu3O8+Z,79.7
Pb2Sr2Y0.5Ca0.5Cu3O8+Z,79.7
Pb2Sr2Y0.45Ca0.55Cu3O8+Z,78.8
Pb2Sr2Y0.4Ca0.6Cu3O8+Z,79.1
Pb2Sr2Y0.3Ca0.7Cu3O8+Z,73.0
Pb2Sr2Y0.2Ca0.8Cu3O8+Z,73.2
Y0.9Pr0.1Ba2Cu3O7-Z,90.0
Y0.8Pr0.2Ba2Cu3O7-Z,78.4
Y0.7Pr0.3Ba2Cu3O7-Z,64.0
Y0.6Pr0.4Ba2Cu3O7-Z,48.0
Y0.5Pr0.5Ba2Cu3O7-Z,33.0
Y0.95Pr0.05Ba2Cu3O6.97,91.5
Y0.6Pr0.4Ba2Cu3O6.97,40.0
Y0.85Ca0.05Pr0.1Ba2Cu3O6.95,84.6
Y0.8Ca0.1Pr0.1Ba2Cu3O6.95,81.4
Y1Ba2Cu3O6.95,92.2
Y0.95Pr0.05Ba2Cu3O6.95,91.5
Y0.9Pr0.1Ba2Cu3O6.95,88.1
Y0.85Pr0.15Ba2Cu3O6.95,81.6
Y0.8Pr0.2Ba2Cu3O6.95,74.6
Y0.83Ca0.02Pr0.15Ba2Cu3O6.95,83.0
Y0.8Ca0.05Pr0.15Ba2Cu3O6.95,82.7
Y0.77Ca0.08Pr0.15Ba2Cu3O6.95,81.7
Y0.75Ca0.1Pr0.15Ba2Cu3O6.95,79.6
Y0.7Ca0.15Pr0.15Ba2Cu3O6.95,77.6
Y0.75Ca0.05Pr0.2Ba2Cu3O6.95,76.4
Y0.7Ca0.1Pr0.2Ba2Cu3O6.95,77.1
Y0.6Ca0.2Pr0.2Ba2Cu3O6.95,72.9
Y0.65Ca0.15Pr0.2Ba2Cu3O6.95,77.1
Tl1Ba2Ca0.9Gd0.1Cu2O7,91.8
Tl1Ba2Ca0.8Gd0.2Cu2O7,93.6
Tl1Ba2Ca0.7Gd0.3Cu2O7,84.5
Tl1Ba2Ca0.9Y0.1Cu2O7,86.1
Tl1Ba2Ca0.8Y0.2Cu2O7,97.6
Tl1Ba2Ca0.65Y0.35Cu2O7,102.0
Tl1Ba2Ca0.6Y0.4Cu2O7,95.8
Tl1Ba2Ca1Cu2O7,81.6
Tl1Ba2Ca0.9Nd0.1Cu2O7,90.8
Tl1Ba2Ca0.8Nd0.2Cu2O7,96.3
Tl1Ba2Ca0.7Nd0.3Cu2O7,95.5
Y1Ba2Cu3O6.8,89.5
Y1Ba2Cu2.94Ni0.06O7-Z,82.7
Y1Ba2Cu2.85Ni0.15O7-Z,74.6
Gd1Ba2Cu2.97Fe0.03O7-Z,88.2
Gd1Ba2Cu2.94Fe0.06O7-Z,85.0
Gd1Ba2Cu2.82Fe0.18O7-Z,55.2
Gd1Ba2Cu2.76Fe0.24O7-Z,40.6
Gd1Ba2Cu2.73Fe0.27O7-Z,36.4
Gd1Ba2Cu2.67Fe0.33O7-Z,11.8
Gd1Ba2Cu2.64Fe0.36O7-Z,18.6
Y1Ba2Cu3O6.93,92.0
Y1Ba2Cu2.955Fe0.045O6.93,91.4
Y1Ba2Cu2.835Fe0.165O6.98,69.3
Y1Ba2Cu2.745Fe0.255O7.08,53.0
Y1Ba2Cu2.64Fe0.36O7.12,32.0
Y1Ba2Cu2.58Fe0.42O7-Z,24.7
Dy1Ba2Cu4O8,77.2
Er1Ba2Cu4O8,78.3
Tm1Ba2Cu4O8,78.6
Y1Ba2Cu4O8,80.4
Sm1Ba2Cu4O8,69.3
Eu1Ba2Cu4O8,68.9
Gd1Ba2Cu4O8,73.4
Y1Ba2Cu4O8.045,81.4
Y1Ba2Cu4O8,79.7
Y1Ba2Cu4O8,80.6
Ho1Ba2Cu4O8,77.4
Er1Ba2Cu4O8,78.0
Y1Ba2Cu4O8,82.9
Y0.981Ba1.994Ca0.025Cu4O8,87.1
Y0.962Ba1.987Ca0.05Cu4O8,91.5
Y0.925Ba1.975Ca0.1Cu4O8,92.3
Y0.887Ba1.962Ca0.15Cu4O8,91.8
Y0.85Ba1.95Ca0.2Cu4O8,91.6
Y1Ba2Cu4O8.043,80.0
Y1Ba2Cu4O8,74.0
Y1Ba2Cu4O8,80.0
Y1Ba2Cu4O8,75.0
La2Cu1O4.13,34.0
La2Cu1O4.32,37.5
Nd1.85Ce0.15Cu1O4-Y,24.0
Bi1.4Pb0.5Sb0.1Sr2Ca2Cu3O10-X,106.9
Tl2Ba2Cu1O6,85.0
Bi1.6Pb0.4Sb0.1Sr2Ca2Cu2OZ,132.25
Y1Ba2Cu2.85Zn0.15O7-Z,42.8
Y1Ba2Cu2.85Zn0.114Ga0.036O7-Z,40.2
Y1Ba2Cu2.85Zn0.075Ga0.075O7-Z,42.3
Y1Ba2Cu2.85Zn0.036Ga0.114O7-Z,55.1
Y1Ba2Cu2.85Ga0.15O7-Z,75.2
La1.85Sr0.15Cu1O4,37.0
La1.8Sr0.2Cu1O4,39.0
Nd1.85Ce0.15Cu1O4,22.9
Nd1.847Ce0.153Cu1O4,22.5
Pb2.04Sr2.07Y0.61Ca0.38Cu3O8,65.0
Y0.9Pr0.1Ba2Cu3O6.85,89.0
Y0.8Pr0.2Ba2Cu3O6.82,71.6
Y0.7Pr0.3Ba2Cu3O7-Z,67.4
Y0.6Pr0.4Ba2Cu3O6.76,44.3
Y0.5Pr0.5Ba2Cu3O7-Z,25.4
Bi1.4Pb0.6Ca2Sr2Cu3OZ,108.0
Er1Ba2Cu3O7-Z,92.5
Er1Ba2Cu3O7-Z,51.8
Pr1.85Th0.15Cu1O3.98,17.2
Nd1.85Th0.15Cu1O3.98,17.0
Sm1.85Th0.15Cu1O3.98,1.8
Pr1.85Ce0.15Cu1O3.98,19.4
Nd1.85Ce0.15Cu1O3.98,21.2
Sm1.85Ce0.15Cu1O3.98,19.7
Eu1.85Ce0.15Cu1O3.98,7.3
Eu1Ba2Cu3O6.9,88.0
Eu1Ba2Cu2.925Zn0.075OZ,27.0
La2Cu1FO4,40.0
Ho1Ba2Cu4O8,76.0
Y2Ba4Cu7O15,93.0
Y0.93Ca0.07Ba2Cu4O8,89.0
Bi1.8Pb0.4Sr1.85Ca2.05Cu3O10.26,107.0
Bi2Sr2Ca1Cu2O8+Z,85.0
Y1Ba2Cu4O8,83.0
Y0.9Ca0.1Ba2Cu4O8,91.0
Y1Ba2Cu3O7-Z,86.5
La1.8Sr0.2Cu1O4,34.2
Y1Ba2Cu3OZ,89.6
Y1Ba2Cu3O7-Z,89.7
Y1Ba2Cu4O8,82.5
Gd1Ba2Cu3O7-Z,95.5
Y1Ba2Cu4OZ,74.6
Y2Ba4Cu7OZ,51.3
Y1Ba2Cu3O6.81,89.5
Y1Ba2Cu3O6.54,58.0
Y0.9Pr0.1Ba2Cu3O7-Z,85.5
Y0.8Pr0.2Ba2Cu3O7-Z,79.6
Y0.7Pr0.3Ba2Cu3O7-Z,56.0
Y0.6Pr0.4Ba2Cu3O7-Z,48.5
Bi2Sr2Ca0.8Y0.2Cu2O8.26,92.0
Bi2Sr2Ca0.8La0.2Cu2O8.26,87.9
Bi2Sr2Ca0.8Nd0.2Cu2O8.26,88.8
Bi2Sr2Ca0.8Eu0.2Cu2O8.26,90.4
Bi2Sr2Ca0.8Gd0.2Cu2O8.26,89.8
Bi2Sr2Ca0.8Dy0.2Cu2O8.26,90.8
Bi2Sr2Ca0.8Yb0.2Cu2O8.26,91.2
Eu1Ba2Cu3O7-Z,95.8
Eu0.9Pr0.1Ba2Cu3O7-Z,77.8
Eu0.8Pr0.2Ba2Cu3O7-Z,53.5
Eu0.7Pr0.3Ba2Cu3O7-Z,35.2
Eu0.65Pr0.35Ba2Cu3O7-Z,19.1
La1.9Ca1.1Cu2O6-Z,39.5
La1.85Ca1.15Cu2O6-Z,45.5
La1.75Ca1.25Cu2O5.99,47.7
La1.4Ca1.6Cu2O6-Z,47.7
La1Ba2Cu3OX,62.5
Nd1Ba2Cu3OX,93.6
Sm1Ba2Cu3OX,94.2
Eu1Ba2Cu3OX,93.9
Gd1Ba2Cu3OX,93.6
Dy1Ba2Cu3OX,91.8
Ho1Ba2Cu3OX,91.7
Er1Ba2Cu3OX,91.4
Tm1Ba2Cu3OX,90.2
Yb1Ba2Cu3OX,88.7
Lu1Ba2Cu3OX,86.9
Pb2Sr2Y0.5Ca0.5Cu3O8,78.4
Pb2Sr2Y0.5Ca0.5Cu3O8.6,65.0
Y1Ba2Cu3O7,86.0
Y1Ba2Cu3O7-Z,91.6
La1.85Sr0.15Cu1O4,35.5
Y1.04Ba1.96Cu3O6.8,90.6
Nd1.85Ce0.15Cu1O4-Z,24.0
Pr1.85Ce0.15Cu1O4-Z,23.0
Y1Ba2Cu3O6.7,56.0
Y1Ba2Cu3O6.94,91.7
Y1Ba2Cu3O6.85,90.9
Y1Ba2Cu3O6.65,79.3
Y1Ba2Cu3O6.55,58.3
Y1Ba2Cu3O6.45,52.5
Y1Ba2Cu3O6.36,8.3
Y1Ba2Cu3OZ,81.0
Y1Ba2Cu3OZ,91.0
Er1Ba2Cu3O7,91.1
Tm1Ba2Cu3O7,92.1
Yb1Ba2Cu3O7,96.1
Lu1Ba2Cu3O7,92.4
Y1Ba2Cu3O7,94.0
Sm1Ba2Cu3O7,73.0
Nd1Ba2Cu3O7,93.5
Eu1Ba2Cu3O7,82.2
Gd1Ba2Cu3O7,95.7
Dy1Ba2Cu3O7,95.1
Ho1Ba2Cu3O7,91.3
Gd1Ba2Cu3O7,90.0
Y1Ba2Cu3O6.88,90.6
Tl2Ca2Ba2Cu3O10,119.95
Th1Ca3Ba1Cu3O9,124.5
Y1Ba2Cu3OZ,93.0
Er1Ba2Cu3OZ,90.0
Bi2Sr2Ca1Cu2O8,83.0
Y1Ba2Cu2.94Zn0.06O7-Z,69.0
Y1Ba2Cu2.88Zn0.12O7-Z,41.0
Y1Ba2Cu2.94Ni0.06O7-Z,84.0
Y1Ba2Cu2.88Ni0.12O7-Z,78.0
Y1Ba2Cu2.88Co0.12O7-Z,72.5
Y1Ba2Cu2.94Cr0.06O7-Z,84.0
Y1Ba2Cu2.88Al0.12O7-Z,78.0
Y1Ba2Cu2.82Al0.18O7-Z,66.0
Y1Ba2Cu2.85Fe0.15O7-Z,75.0
Y1Ba2Cu2.775Fe0.225O7-Z,59.0
Y1Ba2Cu3O6.8,64.0
Er2Ba4Cu7O15-Z,85.0
Y2Ba4Cu7O15,92.0
Y2Ba4Cu7O14.98,88.0
Y2Ba4Cu7O14.92,82.0
Y2Ba4Cu7O14.85,78.0
Y2Ba4Cu7O14.78,70.0
Y2Ba4Cu7O14.68,60.0
Y2Ba4Cu7O14.46,46.0
Y2Ba4Cu7O14.38,50.0
Y2Ba4Cu7O14.16,34.0
Y2Ba4Cu7O14.04,36.0
Y2Ba4Cu7O14,30.0
Bi2Sr2Nd1.64Ce0.36Cu2O10.23,14.0
Bi2Sr2Sm1.64Ce0.36Cu2O10.24,16.0
Bi2Sr2Eu1.64Ce0.36Cu2O10.26,27.0
Bi2Sr2Gd1.64Ce0.36Cu2O10.24,34.0
Bi2Sr2Dy1.64Ce0.36Cu2O10.26,27.0
Bi2Sr2Ho1.64Ce0.36Cu2O10.22,24.0
Bi2Sr2Y1.64Ce0.36Cu2O10.22,20.0
Tl1Ba2Ca1Cu2O7,80.0
Nd1.88Ce0.12Cu0.98IN0.02O4-Z,15.4
Nd1.88Ce0.12Cu0.97IN0.03O4-Z,17.0
Nd1.88Ce0.12Cu0.96IN0.04O4-Z,10.5
Nd1.87Ce0.13Cu0.98IN0.02O4-Z,19.5
Nd1.85Ce0.15Cu1O4-Z,22.7
Nd1.85Ce0.15Cu0.99IN0.01O4-Z,20.5
Nd1.85Ce0.15Cu0.98IN0.02O4-Z,19.5
Ba0.6K0.4Bi1O3,25.5
Bi2Sr2Ca1Cu2OZ,85.0
Y1Ba2Cu2.94Ni0.06O7,83.5
Y1Ba2Cu2.94Al0.06O7,87.0
Tl2Ba2Ca2Cu3O10,118.5
Th1Ba2Ca2Cu3OZ,114.0
Y1Ba2Cu3O7-Z,90.9
Nd1Ba2Cu3O7-Z,91.9
Sm1Ba2Cu3O7-Z,90.9
Eu1Ba2Cu3O7-Z,93.8
Gd1Ba2Cu3O7-Z,94.2
Dy1Ba2Cu3O7-Z,91.0
Ho1Ba2Cu3O7-Z,92.7
Er1Ba2Cu3O7-Z,92.2
Er1Ba2Cu3O7-Z,89.3
Tm1Ba2Cu3O7-Z,91.5
Yb1Ba2Cu3O7-Z,90.1
Lu1Ba2Cu3O7-Z,90.0
Tl2Ba2Cu1O6.01,81.0
Tl2Ba2Cu1O6.03,62.0
Tl2Ba2Cu1O6.05,47.0
Tl2Ba2Cu1O6.08,16.0
Nd1.86Ce0.14Cu1O3.96,21.3
Nd1.85Ce0.15Cu1O3.95,22.1
Nd1.84Ce0.16Cu1O3.96,16.1
Nd1.83Ce0.17Cu1O4,9.9
Pb1.3Sr4Y1.4Ca0.6Cu4.7OZ,22.0
Pb1.35Sr4Y1.3Ca0.7Cu4.65OZ,41.0
Pb1.4Sr4Y1.2Ca0.8Cu4.6OZ,52.0
Y1Ba2Cu2.97Zn0.03O7,79.5
Y1Ba2Cu2.91Zn0.09O7,56.0
Y1Ba2Cu2.85Zn0.15O7,43.5
Y1Ba2Cu2.79Zn0.21O7,27.0
Y1Ba2Cu2.7Zn0.3O7,19.0
Tl2Ba2Ca2Cu3OZ,114.0
Y2Ba4Cu7O15-Z,41.0
Y2Ba4Cu7O15-Z,66.0
Y2Ba4Cu7O15-Z,75.0
Y2Ba4Cu7O15-Z,82.0
Dy0.35Ba0.65Cu1O3-Z,99.25
Dy0.35Ba0.65Pb0.1Cu0.9O3-Z,90.25
Y1Ba2Cu3O7,85.5
Y1Ba2Cu4O8,79.6
Ba0.65K0.35Bi1O3,27.0
Ba0.63K0.37Bi1O3,27.7
Ba0.6K0.4Bi1O3,28.0
Ba0.55K0.45Bi1O3,25.6
Nd1.85Th0.15Cu1O4,22.5
Nd1.55La0.3Th0.15Cu1O4,22.0
Nd1.25La0.6Th0.15Cu1O4,18.0
Nd0.95La0.9Th0.15Cu1O4,16.0
Nd0.85La1Th0.15Cu1O4,16.0
Eu1.55La0.3Ce0.15Cu1O4,10.0
Eu1.25La0.6Ce0.15Cu1O4,15.0
Eu0.95La0.9Ce0.15Cu1O4,17.5
Eu0.85La1Ce0.15Cu1O4,15.0
Eu0.65La1.2Ce0.15Cu1O4,11.0
Nd1.85Ce0.15Cu1O4,24.0
Nd1.55La0.3Ce0.15Cu1O4,25.2
Nd1.25La0.6Ce0.15Cu1O4,23.0
Nd0.95La0.9Ce0.15Cu1O4,22.0
Nd0.85La1Ce0.15Cu1O4,15.0
Tl2Ba2Ca1Cu2O8+Z,106.0
Tl2Ba2Ca2Cu3O10+Z,129.0
Nd1.85Ce0.15Cu1O4-Z,19.5
Pr1.86Ce0.14Cu1O4-Z,20.0
Pr1.85Ce0.15Cu1O4-Z,17.8
Pr1.84Ce0.16Cu1O4-Z,12.3
Nd1.3Ce0.2Sr0.15Cu1O4-Z,23.76
Nd1.85Ce0.15Cu1O3.98,19.5
Y0.8Pr0.2Ba2Cu3O7,67.0
Y0.6Pr0.4Ba2Cu3O7,35.0
Y0.8Pr0.2Ba2Cu3O6.95,73.3
Y0.7Pr0.3Ba2Cu3O6.95,62.5
Y0.6Pr0.4Ba2Cu3O6.95,45.3
Y0.4Pr0.6Ba2Cu3O6.95,9.0
Y1Ba2Cu2.7Fe0.3O7.1,69.0
Y0.8Pr0.2Ba2Cu2.7Fe0.3O7.1,25.0
Pr1.85Ce0.15Cu1O4,19.0
Eu1.85Ce0.15Cu1O4,8.0
Y1Ba2Cu3O6.95,90.0
Eu1Ba2Cu3O7,95.0
Gd1Ba2Cu3O6.8,81.0
Gd1Ba2Cu3O7,96.0
Er1Ba2Cu3O7,93.0
Bi2Sr2Ca1Cu2O8,82.0
Tl2Ba2Ca2Cu3O10,105.0
Tl1.75Cd0.25Ba2Cu1O6,88.0
Nd1.85Ce0.15Cu1O4,18.4
Nd1.85Ce0.15Cu0.999Co0.001O4,15.5
Nd1.85Ce0.15Cu0.998Co0.002O4,14.4
Nd1.85Ce0.15Cu0.996Co0.004O4,9.6
Pb0.5Sr2Ca0.5Y0.5Cu2.5O7-Z,65.0
Bi1Pb1Sr2Y0.65Ca0.35Cu2O8,76.0
Bi1Pb1Sr2Y0.6Ca0.4Cu2O8,83.0
Bi1Pb1Sr2Y0.5Ca0.5Cu2O8,85.0
Bi1Pb1Sr2Y0.4Ca0.6Cu2O8,79.5
Bi1Pb1Sr2Y0.3Ca0.7Cu2O8,75.0
Y1Ba2Cu4O8+Z,82.0
Y1Ba2Cu3.96Fe0.04O8+Z,59.0
Y1Ba2Cu3.9Fe0.1O8+Z,26.0
Bi1Pb1Sr1.2La0.2Cu1O6,24.0
Bi1Pb1Sr1.26La0.26Cu1O6,26.0
Bi1Pb1Sr1.5La0.5Cu1O6,16.3
Bi1Pb1Sr0.12Pr0.12Cu1O6,11.0
Bi1Pb1Sr0.2Pr0.2Cu1O6,15.0
Bi1Pb1Sr0.3Pr0.3Cu1O6,14.0
La1.94Ba0.04Cu1O4,4.0
La1.922Ba0.078Cu1O4,27.0
La1.906Ba0.094Cu1O4,32.0
La1.898Ba0.102Cu1O4,29.0
La1.882Ba0.118Cu1O4,9.0
La1.858Ba0.142Cu1O4,29.0
La1.8Ba0.2Cu1O4,21.0
La1.76Ba0.24Cu1O4,14.0
La1.85Sr0.15Cu1O4,38.0
Bi2Sr2Ca1Cu2OZ,74.0
Bi2Sr2Ca1Cu2OZ,80.0
Bi2Sr2Ca2Cu3OZ,108.0
Y1Ba2Cu2.8Co0.2OZ,50.2
Y1Ba2Cu2.75Co0.25OZ,39.3
Y1Ba2Cu2.725Co0.275OZ,31.0
Y1Ba2Cu2.7Co0.3OZ,23.2
Y1Ba2Cu2.675Co0.325OZ,7.0
Bi1.8Pb0.2Sr2Ca1Cu2O8+Z,91.1
Bi1.8Pb0.2Sr2Ca2Cu3O10+Z,103.0
Bi1.75Pb0.25Sr2Ca2Cu3O10+Z,108.0
Y0.6Eu0.4Ba2Cu3O7,92.6
Y0.2Eu0.8Ba2Cu3O7,93.8
Eu1Ba2Cu3O7,95.2
Y1Ba2Cu3O6.93,91.0
Y1Ba2Cu3O6.6,58.0
Pb0.5Sr1Ba1Y0.75Ca0.25Cu2.5OZ,61.5
Pb0.5Sr1.5Ba0.5Y0.75Ca0.25Cu2.5OZ,31.5
Y1Ba2Cu3.96Zn0.04O8,52.2
Y1Ba2Cu3.94Zn0.06O8,39.6