composition,critical_temperature_tc
La0.99Yb0.01,5.5
La0.99Lu0.01,5.59
Gd0.004La0.996,3.59
Ru2Sc1,1.67
Ru2Y1,1.52
La1Ru2,1.63
In1,3.407
Hg0.004In0.996,3.396
Hg0.016In0.984,3.342
Hg0.048In0.952,3.427
V3Ga0.8Si0.2,11.9
V3Ga0.2Si0.8,10.5
V3Ga0.6Si0.4,9.5
V3Ga0.4Si0.6,8.7
Si1V3,16.7
V3Ga0.9Sn0.1,10.7
V3Ga0.7Sn0.3,7.2
V3Ga0.5Sn0.5,5.6
V3Ga0.1Sn0.9,3.8
Sn1V3,3.4
Pb1,7.19
In0.005Pb0.995,7.181
In0.01Pb0.99,7.173
In0.02Pb0.98,7.15
In0.04Pb0.96,7.075
In0.06Pb0.94,7.061
In0.08Pb0.92,7.025
Sn1,3.73
Ga0.01Sn0.99,3.726
Ga0.02Sn0.98,3.726
Ga0.04Sn0.96,3.887
Ga0.05Sn0.95,3.938
Hg0.9In0.1,3.73
In0.92Sn0.08,4.25
In0.9Pb0.1,4.36
La1Ru2,4.07
La0.98Gd0.02Ru2,3.23
La0.97Gd0.03Ru2,2.73
La0.96Gd0.04Ru2,2.27
La0.95Gd0.05Ru2,1.61
Hf0.61Ta0.39,5.71
Hf0.52Ta0.48,6.61
Hf0.4Ta0.6,6.85
Hf0.1Ta0.9,5.6
Ta1,4.21
Ta0.96W0.04,3.3
Ta0.91W0.09,2.78
Ta0.84W0.16,1.86
Ta0.78W0.22,1.36
In0.966Mg0.034,3.61
In0.82Mg0.18,3.67
Nb3Ga0.05Sn0.95,18.3
Nb3In0.15Sn0.85,18.3
Nb3Tl0.1Sn0.9,18.25
Nb3Ge0.1Sn0.9,17.97
Nb3Pb0.15Sn0.85,18.24
Nb3As0.05Sn0.95,18.19
Nb3Sb0.1Sn0.9,17.04
Nb3Bi0.15Sn0.85,18.28
Nb3Al0.05Sn0.95,18.2
Nb3In0.2Sb0.2Sn0.6,16.0
Nb3Ge0.2Pb0.2Sn0.6,17.84
Nb3Ga0.2Bi0.2Sn0.6,18.06
Nb3Al0.72Ge0.28,19.9
Nb3Al0.5Sn0.5,16.0
Nb3Sn0.91Ga0.09,18.3
Nb3Sn0.49Ga0.51,16.4
Nb3Sn0.8Ge0.2,17.65
Nb3Sn0.91Al0.09,17.8
Nb3Sn0.7Al0.3,15.75
Nb3Ga0.95Ge0.05,15.4
Nb3Ga0.65Al0.35,18.1
Nb3Ga0.9Sn0.1,16.1
Nb3Ga0.8Sn0.2,16.2
Nb3Ga0.65Sn0.35,16.3
Nb3Ga0.5Sn0.5,16.4
Hf0.909W0.091,2.38
Hf0.834W0.166,2.79
Hf0.78W0.22,2.77
Hf0.661W0.339,2.51
W0.054Zr0.946,3.88
W0.014Zr0.986,3.64
W0.801Zr0.199,2.01
Hf0.915Mo0.085,2.13
Hf0.654Mo0.346,2.92
Hf0.34Mo0.66,1.0
Mo0.059Zr0.941,4.15
Mo0.202Zr0.798,5.25
Mo0.67Zr0.33,1.56
Hf1Mo2,0.07
Hf0.96Rh0.04,2.34
Hf0.9Rh0.1,1.9
Hf0.8Rh0.2,1.95
V75Si20Ge5,12.15
V75Si12.5Ge12.5,8.58
V75Si5Ge20,6.76
V75Ge20Sn5,5.46
V75Ge20Sb5,5.86
V75Ge12.5Sb12.49,4.71
V75Si20Ga5,12.33
V75Si12.5Ga12.5,8.15
V75Si5Ga20,10.58
V75Si2.57Ga22.4,13.32
H0.81Pd1,1.21
H0.87Pd1,2.95
Pd0.985Ni0.015H0.75,1.72
Pd0.985Ni0.015H0.79,2.8
Pd0.985Ni0.015H0.84,2.52
Pd0.95Ni0.05H0.86,1.49
Pd0.95Ni0.05H0.9,2.95
Cr0.027Ti0.973,3.5
Cr0.152Ti0.848,4.18
Mn0.025Ti0.975,2.33
Mn0.101Ti0.899,3.0
Fe0.025Ti0.975,3.08
Fe0.101Ti0.899,3.67
Co0.032Ti0.968,2.84
Co0.15Ti0.85,3.8
Y0.96Gd0.04Ru2,3.5
Y0.92Gd0.08Ru2,2.2
Ce0.97Gd0.03Ru2,4.69
Ce0.93Gd0.07Ru2,3.38
Ti0.6V0.4,7.5
Ti0.588V0.392Fe0.02,6.79
Ti0.576V0.384Fe0.04,6.08
Ti0.564V0.376Fe0.06,5.32
Ti0.588V0.392Ru0.02,6.58
Ti0.576V0.384Ru0.04,5.57
Ti0.564V0.376Ru0.06,4.72
La1,6.23
Er0.03La0.97,4.49
Er0.08La0.92,1.43
La0.98Nd0.02,3.94
La0.96Nd0.04,1.69
Nb0.96Ti0.04N0.9,13.8
Nb0.92Ti0.08N0.93,15.2
Nb0.75Ti0.25N0.94,16.1
Nb0.5Ti0.5N0.95,15.1
Nb0.35Ti0.65N0.97,13.2
Nb0.25Ti0.75N0.98,10.5
Nb0.1Ti0.9N0.98,6.48
N0.99Ti1,4.41
Nb0.92Hf0.08N0.93,13.7
Nb0.85Hf0.15N0.94,12.3
Nb0.67Hf0.33N1,10.2
Nb0.5Hf0.5N0.98,7.33
Nb0.35Hf0.65N1,6.05
Nb0.1Hf0.9N1,5.47
Nb0.95V0.05N0.85,7.12
Nb0.85V0.15N0.92,3.88
Nb0.67V0.33N0.94,1.86
Nb0.5V0.5N0.94,1.86
Nb0.25V0.75N0.94,2.92
N0.99V1,7.91
Nb0.85Zr0.15N1,13.7
Hg0.06Sn0.94,5.05
In1,3.4
In0.95Pb0.05,3.77
In0.9Pb0.1,4.51
In0.85Pb0.15,5.1
In0.75Pb0.25,5.65
In0.6Pb0.4,6.2
In0.5Pb0.5,6.43
In0.2Pb0.8,6.95
Hf1V2,8.85
Hf0.99Ta0.01V2,9.11
Hf0.95Ta0.05V2,9.49
Hf0.9Ta0.1V2,9.49
Hf0.8Ta0.2V2,9.54
Hf0.8Zr0.2V2,9.73
Hf0.6Zr0.4V2,9.97
Hf0.4Zr0.6V2,8.98
Hf0.2Zr0.8V2,8.85
V2Zr1,7.83
Ta2S2C2,3.61
Ge2Lu1,2.6
Mg1C1Ni3,6.7
C,7.4
B2.8C97.2,4.0
U1Ni2Al3,1.02
U1Pd2Al3,1.93
U1Ni2Al3,0.98
Ga1Nb4Se8,2.9
Ga1Ta4Se8,5.8
La98Lu2,4.643
La98Lu1.7Tb0.3,3.959
La98Lu1.4Tb0.6,3.127
La98Lu0.934Tb1.066,1.608
La98Lu0.877Tb1.123,1.602
La98Lu0.815Tb1.185,1.248
La98Lu0.754Tb1.246,0.907
La98Lu0.697Tb1.303,0.632
La98Lu1.15Tb0.85,2.582
La98Lu1Tb1,2.108
In0.017Sn0.983,3.625
In0.046Sn0.954,3.655
In0.075Sn0.925,3.766
Al0.152Sn0.848,3.677
Mo0.75Pt0.15Re0.1,5.3
Mo0.7Pt0.075Re0.225,7.4
Mo0.65Pt0.1Re0.25,7.4
Mo0.65Pt0.05Re0.3,8.9
Mo0.6Pt0.1Re0.3,8.5
Mo0.6Pt0.05Re0.35,9.8
Mo0.35Pt0.075Re0.375,10.6
Mo0.55Pt0.05Re0.4,10.2
Ir0.7Os0.3,0.0167
Os0.32Rh0.68,0.0376
Rh0.8Y0.2,1.18
Ir0.8Y0.2,3.66
Sn99.2In0.4Sb0.4,3.669
Sn93In3.5Sb3.5,3.743
In3Sn97,3.628
In6Sn94,3.644
Th1,1.37
Th90.9Tm9.1,1.07
Th81.3Tm18.7,0.97
Th70.2Tm29.8,0.67
Pr0.102Th0.898,0.95
Pr0.179Th0.821,0.75
Pr0.251Th0.749,0.53
Pr0.342Th0.658,0.32
La1Tl3,1.5
La0.967Pr0.033Tl3,1.16
La0.93Pr0.07Tl3,0.8
La0.901Pr0.099Tl3,0.55
La1Sn3,6.55
La0.962Tm0.038Sn3,5.49
La0.908Tm0.092Sn3,4.18
La1Pb3,4.09
La0.95Pr0.05Pb3,3.3
La0.9Pr0.1Pb3,2.58
La0.85Pr0.15Pb3,1.88
La0.8Pr0.2Pb3,1.34
La0.75Pr0.25Pb3,0.8
La0.7Pr0.3Pb3,0.37
Al1,1.1793
In0.1Tl0.9,2.97
In0.17Tl0.83,3.45
In0.25Tl0.75,3.64
In0.4Tl0.6,2.52
In0.45Tl0.55,2.48
Tl1,2.39
La1,4.94
La0.91Lu0.09,3.28
La0.951Lu0.049,4.37
Ir1,0.11
Ir0.96Re0.04,0.142
Ir0.93Re0.07,0.22
Ir0.9Re0.1,0.34
Ir0.8Re0.2,0.66
Ir0.7Re0.3,1.7
Ir0.95Re0.02,0.112
Ir0.55Re0.15,0.61
Ir0.7Os0.3,0.48
Ir0.6Os0.4,0.73
Ir0.987Mo0.013,0.107
Ir0.973Mo0.027,0.133
Ir0.953Mo0.047,0.168
Ir0.9Mo0.1,0.29
Ir0.82Mo0.18,0.5
Ir0.987W0.013,0.107
Ir0.973W0.027,0.125
Ir0.953W0.047,0.162
Ir0.9W0.1,0.23
Ir0.85W0.15,0.41
Ir0.99V0.01,0.11
Ir0.98V0.02,0.115
Ir0.965V0.035,0.147
Ir0.85V0.15,0.26
Ir0.99Nb0.01,0.102
Ir0.98Nb0.02,0.115
Ir0.965Nb0.035,0.138
Ir0.925Nb0.075,0.172
Ir0.9Nb0.1,0.06
Ir0.99Ta0.01,0.116
Ir0.97Ta0.03,0.127
Ir0.94Ta0.06,0.15
Ir0.925Ta0.075,0.125
Ir0.9Ta0.1,0.067
Ir0.925Ru0.075,0.11
Ir0.89Ru0.11,0.105
Ir0.845Ru0.155,0.11
Ir0.8Ru0.2,0.13
Ir0.765Ru0.235,0.142
Ir0.71Ru0.29,0.18
Ir0.95Rh0.05,0.075
Ir0.89Rh0.11,0.06
Ir0.815Rh0.185,0.028
Ir0.8Rh0.2,0.03
Ir0.75Rh0.25,0.026
Ir0.96Pd0.04,0.069
Ir0.95Pd0.05,0.05
Ir0.91Pd0.09,0.047
Ir0.9Pd0.1,0.032
Ir0.88Pd0.12,0.035
Ir0.72Re0.18Rh0.1,0.6
Ir0.64Re0.16Rh0.2,0.55
Ir0.56Re0.14Rh0.3,0.25
Ir0.46Re0.115Rh0.425,0.13
Ir0.4Re0.1Rh0.5,0.08
Ir0.63Os0.27Rh0.1,0.4
Ir0.56Os0.24Rh0.2,0.28
Ir0.49Os0.21Rh0.3,0.27
Ir0.406Os0.174Rh0.42,0.095
Ir0.07Rh0.07Os0.86,0.064
Ir0.0875Rh0.0875Os0.825,0.095
Ir0.1Rh0.1Os0.8,0.14
Ir0.135Rh0.135Os0.73,0.22
Ir0.165Rh0.165Os0.67,0.35
Ir0.125Os0.2Rh0.675,0.05
Ir0.54Os0.1Rh0.36,0.038
Ir0.1Os0.25Rh0.65,0.1
Ir0.6Os0.1Rh0.3,0.55
Ir0.1Os0.3Rh0.6,0.21
Ir0.55Os0.15Rh0.3,0.095
Ir0.765Os0.085Rh0.15,0.096
Ir0.6Os0.2Rh0.2,0.22
Ir0.725Os0.175Rh0.1,0.16
Ir0.125Os0.375Rh0.5,0.46
Ir0.4Os0.3Rh0.3,0.37
Ir0.2Ru0.3Rh0.5,0.055
Ir0.7Ru0.25Rh0.5,0.033
Ir0.7Ru0.1Rh0.2,0.05
Ir0.8Ru0.05Rh0.15,0.064
Ir0.3Ru0.2Rh0.5,0.02
Ir0.37Nb0.63,2.23
Ir0.4Nb0.6,2.2
Mo0.45Re0.55,6.47
Mo0.4Re0.6,6.49
Mo0.35Re0.65,5.6
Ir0.375Nb0.625,7.9
Ir0.385Nb0.615,9.7
Ir0.41Nb0.59,9.8
Mo0.45Re0.55,5.9
Mo0.38Re0.62,5.7
Mo0.33Re0.67,5.8
Mo0.0006Re0.9994,1.697
Re0.994W0.006,1.84
Re0.976W0.024,3.0
Re0.98Rh0.02,2.014
Re0.9865Ru0.0135,1.937
Ir0.02Re0.98,1.968
Os0.02Re0.98,1.807
Re1,1.695
Os0.115Re0.885,1.79
Os0.232Re0.768,1.67
Os0.3Re0.7,1.54
Os0.362Re0.638,1.35
Os0.432Re0.568,1.18
Os0.56Re0.44,0.94
Os0.7Re0.3,0.8
Os0.81Re0.19,0.73
Os0.89Re0.11,0.7
Os1,0.62
Os10,0.478
Os0.333Ru0.667,0.47
Os0.666Ru0.334,0.569
Os0.9Ru0.1,0.584
La3Tl1,8.95
La2.916Pr0.084Tl1,7.7
La2.91Pr0.09Tl1,7.55
La2.92Pr0.18Tl1,6.51
La2.706Pr0.294Tl1,5.25
La2.574Pr0.426Tl1,3.92
La2.55Pr0.45Tl1,3.68
La2.406Pr0.594Tl1,2.4
La2.25Pr0.75Tl1,1.24
La0.95Pr0.05Se1,0.7
La0.9Pr0.1Se1,0.48
La0.8Pr0.2Se1,0.03
La2.85Pr0.15Se4,4.81
La2.7Pr0.3Se4,3.36
La2.4Pr0.6Se4,1.49
La2.25Pr0.75Se4,0.76
La2.82Pr0.18S4,4.33
La2.58Pr0.42S4,2.69
Mg1B1.96C0.04,35.0
Mg1B1.9C0.1,27.0
Mg1B1.85C0.15,20.0
Pr1Ru4P12,1.8
Mg0.98Sc0.02B2,39.0
Mg0.88Sc0.12B2,30.0
Mg0.73Sc0.27B2,6.0
Mg1C1Ni2.995Ru0.005,6.91
Mg1C1Ni2.99Ru0.01,6.72
Mg1C1Ni2.98Ru0.02,6.5
Mg1C1Ni2.8Ru0.2,3.49
Mg1C1Ni2.7Ru0.3,2.8
Mg1C1Ni2.6Ru0.4,2.14
Zr1N1Cl0.7,12.7
Li0.5M3Hf1N1Cl1,25.2
Yb3Co4.3Sn12.7,3.4
Au1Ga2,1.15
Au0.988Pd0.012Ga2,1.25
Au0.976Pd0.024Ga2,1.56
Ru2Th1,3.47
Th0.8Nd0.2Ru2,4.55
Th0.67Nd0.33Ru2,1.51
Th0.9La0.1Ru2,4.73
Th0.9La0.2Ru2,5.87
Th0.9La0.3Ru2,4.45
Th0.9La0.9Ru2,3.05
La1Ru2,4.3
Er1Ni1.98Fe0.02B2C1,8.8
Er1Ni1.965Fe0.035B2C1,7.31
Er1Ni1.96Fe0.04B2C1,7.21
Er1Ni1.96Fe0.04B2C0.99,7.4
Ho1Ni1.99Fe0.01B2C1,7.0
Pu1Rh1Ga5,8.7
B2.1Nb1,9.1
As2Te3,4.4
As1,0.2
Re1,1.694
Os2.76Re97.24,1.844
Os8.33Re91.67,1.876
Mo3.29Zr96.71,2.12
Mo3.95Zr96.05,2.53
Mo5.22Zr94.78,4.0
Mo6.86Zr93.14,4.74
Mo8.75Zr91.25,5.0
Mo13Zr87,4.91
Nb3Rh1,2.64
Nb3Rh0.98Ir0.02,2.43
Nb3Rh0.95Ir0.05,2.38
Nb3Rh0.02Au0.98,10.9
Nb99.976O0.024,9.23
Nb99.861O0.139,9.03
Nb99.445O0.555,8.5
Nb99.078O0.922,8.1
Nb98.68O1.32,7.85
Nb98O2,7.33
Nb96.5O3.5,6.13
Nb1,9.25
Nb1,9.21
B2Mg1,37.9
Nb0.36Ti0.64,9.05
Ti0.64Nb0.34Ta0.02,8.99
Ti0.64Nb0.32Ta0.04,8.9
Ti0.64Nb0.28Ta0.08,8.74
Ti0.64Nb0.26Ta0.1,8.56
Ti0.64Nb0.24Ta0.12,8.32
Ti0.64Nb0.18Ta0.18,8.18
Ti0.64Nb0.1Ta0.26,7.78
Ta0.36Ti0.64,7.53
Nb1,9.273
Nb0.995Ta0.005,9.226
Nb0.99Ta0.01,9.079
Ti0.415V0.585,7.49
Ti0.106V0.894,6.86
Nb0.75Zr0.25,10.6
Nb0.65Zr0.35,10.6
Nb0.5Zr0.5,9.7
Nb0.25Zr0.75,8.3
Nb0.016Ta0.984,4.47
Nb0.04Ta0.96,4.47
Nb0.08Ta0.92,4.54
Nb0.16Ta0.84,4.67
Ta1,4.48
Ta1,4.425
Nb0.037Ta0.963,4.51
Nb0.14Ta0.86,4.76
Nb0.405Ta0.595,5.72
Nb0.58Ta0.42,6.54
V1,5.17
Nb0.15V0.85,4.3
Nb0.2V0.8,4.03
Nb0.5V0.5,4.25
Nb0.69V0.31,4.9
Nb0.8V0.2,5.76
Nb0.9V0.1,6.95
Nb1,9.18
Ta0.1V0.9,4.47
Ta0.24V0.76,3.58
Ta0.5V0.5,2.73
Ta0.7V0.3,3.0
Ta0.9V0.1,3.58
Ta1,4.33
Nb0.8Ta0.2,7.42
Nb0.7Ta0.3,6.8
Nb0.5Ta0.5,5.93
Nb0.3Ta0.7,5.15
Nb0.15Ta0.85,4.58
V1,5.32
Cr0.0018V0.9982,5.15
Cr0.0033V0.9967,5.07
Cr0.0081V0.9919,4.78
Cr0.0132V0.9868,4.57
Cr0.0265V0.9735,3.89
Ti0.5V0.5,6.71
Ti0.1V0.9,6.03
Ti0.03V0.97,5.58
Ti0.01V0.99,5.42
Cr0.01V0.99,4.8
Cr0.02V0.98,4.08
Cr0.026V0.974,3.66
Cr0.055V0.945,1.89
Co0.007V0.993,4.52
Co0.017V0.983,3.28
Co0.02V0.98,2.61
Co0.03V0.97,1.48
Ni0.011V0.989,3.82
Ni0.02V0.98,3.29
Ni0.03V0.97,2.11
Nb0.25Zr0.75,8.6
Nb0.35Zr0.65,9.45
Nb0.5Zr0.5,10.3
Nb0.005Zr0.995,1.86
Nb0.5Zr0.5,10.4
Nb0.75Zr0.25,10.7
Nb3Sn1,18.1
Nb3Sn0.8Sb0.2,16.5
Nb3Sn0.7Sb0.3,15.8
Nb3Sn0.5Sb0.5,14.4
Ga1Nb3,16.0
NbSn3,18.0
Nb2.85Ti0.15Sn1,17.9
Nb2.7Ti0.3Sn1,16.4
Nb2.55Ti0.45Sn1,15.6
Nb2.85Zr0.15Sn1,18.1
Nb2.7Zr0.3Sn1,18.1
Nb2.55Zr0.45Sn1,17.9
Nb2.34Zr0.66Sn1,17.7
Nb2.1Zr0.9Sn1,17.7
Nb2.934V0.066Sn1,17.7
Nb2.85V0.15Sn1,17.1
Nb2.7V0.3Sn1,15.9
Nb2.55V0.45Sn1,15.0
Nb2.85Ta0.15Sn1,18.3
Nb2.7Ta0.3Sn1,18.0
Nb2.4Ta0.6Sn1,17.3
Nb2.1Ta0.9Sn1,16.0
Nb1.8Ta1.2Sn1,14.1
Nb1,9.1
Nb0.4Ta0.6,5.4
Nb0.1Ta0.9,4.55
Nb0.05Ta0.95,4.45
Pd1Te2,1.53
Nb1Se2.2,6.35
Nb1Se2.2,7.0
Nb1Se2,7.17
Nb1Se2,7.02
Nb1.01Se2,7.05
Nb1.02Se2,6.75
Nb1.05Se2,4.86
Sn1,3.734
Nb1,9.16
Nb0.999Y0.001,9.27
Nb0.98Y0.02,9.26
Gd0.001Nb0.999,9.18
Gd0.01Nb0.99,9.19
O0.95Ti1,0.8
O1Ti1,0.64
O1.06Ti1,0.54
Nb1,9.23
Nb0.98Ta0.02,9.02
Nb0.96Ta0.04,8.87
Nb0.94Ta0.06,8.76
Nb0.9Ta0.1,8.4
Nb0.85Ta0.15,8.08
Nb0.7Ta0.3,7.17
Nb0.6Ta0.4,6.56
Be13W1,4.1
Re2Zr1,5.9
Al1Ge2,1.75
Al1Pd1Mo6,2.1
Nb3Sn0.5Ge0.5,11.3
Nb3Sn0.5Zr0.5,16.7
Nb3Zr0.5In0.5,6.4
Nb5Zr2Be8,5.2
Nb4.4Re1,4.8
Mg2Nb1,5.6
V66.6Zr33.3,9.64
Zr33.3V61.8Nb4.8,6.13
Zr33.3V59.25Nb7.35,6.3
Zr33.3V56.7Nb9.9,5.34
Zr33.3V45.5Nb21.12,4.36
Zr33.3V39.3Nb27.4,5.45
Zr31V61.8Nb7.2,9.65
Zr29.8V59.4Nb10.8,9.58
Zr28.4V56.8Nb14.8,8.56
Zr27.1V54.1Nb18.8,4.46
Zr25.8V51.3Nb22.9,4.34
Zr24.3V48.5Nb27.2,4.6
Zr23V45.5Nb31.5,5.42
O0.92Ti1,0.72
O0.86Ti1,0.47
O0.91Ti1,0.7
Pb0.95Sb0.05,7.83
Bi0.05Pb0.95,7.388
Pb0.95Sn0.05,7.268
In0.05Pb0.95,7.091
Pb0.95Tl0.05,7.055
Pb0.4Tl0.6,4.67
Pd0.52Sb0.48,1.65
Pd0.5Sb0.5,1.48
Pd0.49Sb0.51,1.44
Pd50.745Ti0.255Sb49,1.61
Pd49.75V0.25Sb50,1.13
Pd50.745V0.255Sb49,0.91
Pd50.745Sc0.255Sb49,1.56
Pd50.49V0.51Sb49,0.5
Pd50.99745Cr0.00255Sb49,1.35
Pd50.9745Mn0.0255Sb49,1.46
Pd50.93625Fe0.06375Sb49,1.22
Pd50.8725Fe0.1275Sb49,1.03
Pd49.75Co0.25Sb50,1.57
Pd49.75Ni0.25Sb50,1.5
Pd45.9Ni5.1Sb49,1.23
Pd49.75Cu0.25Sb50,1.56
Pd50.745Nb0.255Sb49,1.6
Pd50.745Mo0.255Sb49,1.67
Pd50.745Ru0.255Sb49,1.57
Cd1,0.55
Re1,1.7
Os0.001Re0.999,1.71
Os0.002Re0.998,1.71
Os0.006Re0.994,1.76
Os0.0275Re0.9725,1.84
Os0.046Re0.954,1.92
Os0.065Re0.935,1.92
Os0.084Re0.916,1.88
Os0.113Re0.887,1.79
Re0.025Ta0.975,3.458
Re0.05Ta0.95,2.77
Re0.075Ta0.925,2.08
Re0.1Ta0.9,1.49
Re0.15Ta0.85,0.75
Re0.2Ta0.8,0.21
Mg1C1Ni3,7.12
Mg1C1Ni3,6.8
Ir0.15Os0.85,0.54
Pt0.035W0.965,1.98
Rh0.005Ti0.995,0.79
Rh0.01Ti0.99,1.16
Rh0.015Ti0.985,1.6
Rh0.02Ti0.98,1.73
Rh0.025Ti0.975,1.79
Rh0.03Ti0.97,1.34
Rh0.005Ti0.995,1.8
Rh0.01Ti0.99,2.4
Rh0.02Ti0.98,3.2
Rh0.03Ti0.97,1.9
Rh0.005Zr0.995,3.5
Rh0.01Zr0.99,4.5
Rh0.02Zr0.98,4.8
Rh0.027Zr0.973,3.6
Rh0.035Zr0.965,5.0
Rh0.04Zr0.96,5.0
Rh0.05Zr0.95,5.2
Rh0.06Zr0.94,5.9
Rh0.065Zr0.935,5.9
Rh0.075Zr0.925,6.4
Rh0.08Zr0.92,9.6
Rh0.09Zr0.91,10.1
Sb1Ti3,5.3
Ti0.5Nb0.25Sb0.25,1.95
Ti0.25Nb0.5Sb0.25,3.05
Sb1V3,0.5
Ti1,0.39
Nb1,9.4
Ti1.38V1.62Sb1,1.49
Ti2.01Nb0.99Sb1,1.96
Ti0.99Nb2.01Sb1,2.84
Sb0.25Ti0.75,5.32
Pd1Te1,4.36
Pd1Te1.04,2.45
Rh0.01Zr0.99,4.26
Rh0.03Zr0.97,3.38
Rh0.06Zr0.94,5.95
Rh0.1Zr0.9,10.8
Ru0.42V0.58,2.12
Ru0.43V0.57,2.92
Ru0.445V0.555,3.48
Ru0.46V0.54,5.67
Ru0.47V0.53,4.53
Ru0.475V0.525,3.12
Pd0.56W0.44,1.58
Pd0.6W0.4,1.29
Pd0.72W0.28,0.345
Pt0.73W0.27,0.213
Pt0.52W0.48,1.35
Pt0.33W0.67,3.02
Pt0.43W0.57,2.09
Rh0.03Zr0.97,3.1
Rh0.0375Zr0.925,3.65
Rh0.04Zr0.96,3.8
Rh0.05Zr0.95,4.8
Rh0.06Zr0.94,5.75
Rh0.07Zr0.93,5.95
Rh0.075Zr0.925,6.05
Rh0.08Zr0.92,6.1
Si1V3,15.9
Ta0.685Ti0.315,8.28
Ta0.462Ti0.538,9.05
N1Nb1,15.0
Th1,1.28
Th0.95Y0.05,1.4
Th0.9Y0.1,1.51
Th0.8Y0.2,1.64
Th0.75Y0.25,1.63
Th0.65Y0.35,1.53
La0.05Th0.95,1.3
La0.1Th0.9,1.48
La0.2Th0.8,1.87
La0.7Th0.3,4.88
La0.8Th0.2,5.15
La0.9Th0.1,5.62
Tc0.2W0.8,3.85
Tc0.3W0.7,5.75
Tc0.4W0.6,7.18
Sc0.01V0.99,5.67
Sc0.07V0.93,6.09
Sc0.3V0.7,6.76
Sc0.4V0.6,6.94
Sc0.5V0.5,7.03
Sc0.6V0.4,6.84
Ta0.03Zr0.97,2.01
Ta0.07Zr0.93,3.25
Ta0.1Zr0.9,3.76
Ta0.125Zr0.875,4.14
Ta0.15Zr0.85,4.28
Ta0.17Zr0.83,5.28
Ta0.2Zr0.8,5.56
Y1,1.8
Te1,2.05
Ce0.02Th0.98,0.7
Th0.9988U0.0012,0.55
Al0.998Mn0.002,0.262
Al99.925Mn0.075,0.7
Th99.92U0.08,0.77
Ti0.63V0.27Al0.1,3.62
Ti0.595V0.255Al0.15,2.36
Ti0.72V0.18Al0.1,3.52
Ti0.54V0.36Al0.1,3.44
Ti0.36V0.54Al0.1,2.7
Ti0.18V0.72Al0.1,2.05
V0.81Cr0.09Al0.1,1.46
Sn0.04V0.96,1.86
Sn0.057V0.943,1.6
Sb0.02V0.98,3.29
V1,5.24
Ta0.0082V0.9918,4.9
Ta0.0355V0.9645,4.55
Ta0.0568V0.9432,4.46
Th0.99975U0.025,1.182
Th0.9995U0.05,1.014
Th0.999U0.1,0.725
Th0.99873U0.127,0.658
Th0.9985U0.15,0.495
Th0.998U0.2,0.304
Th0.999U0.001,1.11
Th0.9985U0.0015,0.9
Th0.998U0.002,0.761
Th0.999U0.001,0.66
Ir1U1,0.14
Ag1B2,6.7
Mg1B1.88C0.12,32.9
Tl1Mo6Se7.5,12.2
Sn1.1Mo6Se7.5,4.2
La3Rh2Ge2,3.5
Yb1Pd2Ge2,1.17
La1Pd2Ge2,1.12
La1Pt2Ge2,0.55
Lu0.98La0.02Ni2B2C1,16.2
Lu0.95La0.05Ni2B2C1,15.3
Lu0.94La0.06Ni2B2C1,15.1
Lu0.93La0.07Ni2B2C1,13.6
Lu0.92La0.08Ni2B2C1,13.6
Mg1B1.896C0.104,35.0
Mg1B1.9C0.1,34.3
Mg1B1.874C0.126,33.3
Mg1B1.84C0.16,33.0
Mg1B1.826C0.174,30.8
Mg1B1.81C0.19,30.1
Mg1B1.8C0.2,28.0
Mg1B1.792C0.208,25.5
Mg1B1.7C0.3,10.2
C1,0.37
Mg1B1.9C0.1,33.98
Mg1B1.8C0.2,34.16
Mg1B1.7C0.3,34.27
Mg1B1.6C0.4,33.3
Mg1B1.5C0.5,28.3
Mg1B1.4C0.6,19.45
Y1Ir1Si1,2.7
Zr1Ru1P1,3.82
Zr1Rh1P1,1.55
Nb1Rh1P1,4.42
Ta1Rh1P1,4.86
Zr1Ru1P1,11.45
Hf1Ru1P1,11.89
Zr1Os1P1,6.57
Hf1Os1P1,5.53
Zr1Ru1As1,11.9
Hf1Ru1As1,4.93
Zr1Os1As1,8.0
Hf1Os1As1,3.2
Y0.8Sc0.2Ru1B2,8.1
Y1B2C2,3.6
Lu1B2C2,2.4
Y2Rh3Si5,2.7
Sc2Fe3Si5,4.5
Lu2Fe3Si5,6.0
Y1Ru1B4,1.38
Y1Os3B2,6.0
Y1Os1B4,1.4
Y1Ru3.5Si2,3.51
La1Ru3.5Si2,7.6
Th1Ru3.5Si2,3.98
Sc5Co4Si10,4.53
Sc5Rh4Si10,8.27
Sc5Ir4Si10,8.29
Y5Ir4Si10,3.1
Lu5Rh4Si10,3.95
Lu5Ir4Si10,3.91
Y5Rh4Ge10,1.35
Y5Ir4Ge10,2.76
Y5Os4Ge10,9.06
Lu5Rh4Ge10,2.79
Lu5Ir4Ge10,2.6
Lu4.5Sc0.5Ir4Si10,6.03
Lu4Sc1Ir4Si10,6.64
Lu3.5Sc1.5Ir4Si10,7.69
Lu2.5Sc2.5Ir4Si10,7.93
Lu1Sc4Ir4Si10,7.63
Lu0.25Sc4.75Ir4Si10,7.87
Lu5Ir3.4Rh0.6Si10,5.7
Lu5Ir3.1Rh0.9Si10,5.77
Lu5Ir2.8Rh1.2Si10,5.66
Lu5Ir2Rh2Si10,5.45
Lu5Ir1.2Rh2.8Si10,4.8
Pd2Sc1Sn1,2.15
Sc4Rh6Sn19,1.9
Sc4Ir6Sn19,1.4
Ca4Rh6Pb19,3.3
Sr0.2Mo1S2,5.0
Yb0.2W1Se2,2.2
Y1.8Th0.2C2.7,12.0
Y1.6Th0.4C2.7,14.7
Y1.4Th0.6C2.7,16.4
Y1.3Th0.7C2.7,16.8
Y1.2Th0.8C2.7,16.0
Y1Th1C2.7,15.5
Y0.8Th1.2C2.7,15.1
Y0.6Th1.4C2.7,14.4
Y1.4Th0.6C2.4,15.4
Y0.6Th1.4C2.5,14.6
Y1.4Th0.6C2.8,16.3
Y1.4Th0.6C2.9,16.3
Y1.2Th0.8C2.9,15.8
Y0.6Th1.4C2.9,14.6
Y1.5Th0.5C3,16.7
Y1.4Th0.6C3,16.8
Y1.4Th0.6C3.1,17.0
Y1.8Au0.2C2.6,10.1
Y1.8Ge0.2C2.7,10.6
Y1.8Si0.2C2.7,11.3
Y1.8Sn0.2C2.7,10.2
Y1.8Ru0.2C2.7,11.2
Y1.8Nb0.2C2.7,10.8
Y1.8Ti0.2C2.7,10.7
Y1.8Ti0.2C2.9,14.2
Y1.8Zr0.2C2.9,13.0
Y1.8Mo0.2C2.9,13.8
Y1.8W0.2C2.9,14.5
Y1.8Bi0.2C2.9,9.35
Y1.8V0.2C2.9,11.5
Y1.8Cr0.2C2.9,12.4
Y1.4Ti0.6C3,12.9
Y1.8Ti0.2C3.1,14.5
Y1.8W0.2C3.1,14.8
Th1.8Ho0.2C3,5.4
Th1.6Ho0.4C3,5.5
Th1.4Ho0.6C3,5.2
Th1.9Er0.1C3,6.8
Th1.8Er0.2C3,8.2
Th1.6Er0.4C3,8.2
Th1.4Er0.6C3,8.1
Th1.2Er0.8C3,7.0
Th1Er1C3,4.6
Th1.8Lu0.2C3,10.3
Th1.6Lu0.4C3,10.9
Th1.4Lu0.3C3,11.7
Th1.2Lu0.8C3,11.6
Th1.8Sc0.2C3,6.7
Th1.6Sc0.4C3,6.8
Th1.4Sc0.6C3,7.2
Th1.2Sc0.8C3,7.1
Th1Sc1C3,6.5
Th0.8Sc1.2C3,6.0
Th0.6Sc1.4C3,5.4
In3.3Mo15Se19,4.0
Mo15Se19,4.3
In3Mo15Se19,3.32
Li3Mo15Se19,3.5
K2In1Mo15Se19,1.3
In2Mo15Se19,1.5
Li2Mo15Se19,2.6
K2Mo15Se19,2.1
Ca1Pb3,0.65
La1Tl3,1.63
La1Pb3,4.1
La1Sn3,6.02
Zr1Ru1P1,3.46
Nb1Rh1P1,4.08
Ta1Rh1P1,4.41
Zr1Ru1As1,11.05
Hf1Ru1As1,4.65
Y1Ir2Si2,2.6
Y1Ir2Si2,2.5
Y2Ir3Si5,3.05
Sc1C0.75Ge0.02,8.5
Ir2Th1,5.72
Th1Ir1.8Os0.2,5.66
Th1Ir1.6Os0.4,5.15
Th1Ir1.4Os0.6,4.41
Th1Ir1.3Os0.7,2.36
Th1Ir1.2Os0.8,3.16
Th1Ir1Os1,3.61
Th1Ir0.8Os1.2,3.22
Th1Ir0.6Os1.4,3.73
Th1Ir0.4Os1.6,3.56
Th1Ir0.2Os1.8,2.93
Th1Ir0.1Os1.9,2.25
Th1Ir1.8Ru0.2,4.86
Th1Ir1.6Ru0.4,2.87
Th1Ir1.4Ru0.6,2.08
Th1Ir1.2Ru0.8,1.45
Th1Ir1Ru1,2.53
Th1Ir0.8Ru1.2,2.53
Th1Ir0.6Ru1.4,2.87
Th1Ir0.4Ru1.6,2.87
Th1Ir0.2Ru1.8,3.1
Ru2Th1,4.01
Th1Pt2B2C1,6.5
Th1Ni2B2C1,6.0
Th1Pd2B2C1,14.5
Th1Pd3B3C1,21.5
La1Ru2,4.416
La0.95Ce0.05Ru2,3.616
La0.9Ce0.1Ru2,3.012
La0.85Ce0.15Ru2,2.444
La0.8Ce0.2Ru2,2.01
La0.76Ce0.24Ru2,1.468
La0.72Ce0.28Ru2,1.278
La0.6Ce0.4Ru2,0.727
La0.5Ce0.5Ru2,0.449
La0.46Ce0.54Ru2,0.668
La0.4Ce0.6Ru2,1.3
La0.35Ce0.65Ru2,1.647
La0.3Ce0.7Ru2,2.134
La0.25Ce0.75Ru2,3.196
La0.2Ce0.8Ru2,4.227
La0.15Ce0.85Ru2,5.872
La0.1Ce0.9Ru2,7.194
La0.05Ce0.95Ru2,7.181
Ce1Ru2,6.221
La5B2C6,6.9
Cd1Mo6S8,1.8
Pb1Mo6S8,15.0
Sn1Mo6S8,14.0
La1Mo6S8,7.1
Gd1Mo6S8,1.4
Lu1Mo6S8,2.2
Mo6S8,1.6
Mo6S6I2,1.4
Pb0.92Mo6S7.5,13.98
Pb1Mo5.1S4,14.51
Sn0.6Mo3S4,14.45
Sn0.6Mo3S4,13.05
Cu1Mo3S4,10.66
Ag1Mo4S5,7.77
Tl0.45Bi0.46Mo6S7.5,6.41
Zn1Mo5S6,3.12
Cd1Mo5S6,2.67
Sc1Mo6S7,2.67
Y1Mo6S7,2.66
Mg1Mo6S7,2.72
Cu0.7Mo3Se4,5.9
Ag0.7Mo4Se5,5.96
Sn0.7Mo3Se4,4.85
Pb1.2Mo6Se8,4.32
Y1Mo6Se8,6.38
Si1V3,16.85
Si1V3,16.83
Ga1V3,13.87
Sn1V3,3.65
V3Ge0.9Al0.1,8.8
V3Ge0.8Al0.2,11.02
V3Ge0.7Al0.3,11.17
Au1V3,1.755
Au1V3,2.731
Pt1V3,2.63
Pt1V3,3.18
Ir0.33V0.67,1.6
Nb3Sn1,17.832
Nb0.78Al0.165Ge0.055,20.29
Nb3Rh1,2.797
Nb3Pt1,8.111
Nb3Pt1,8.174
Nb3Pt1,10.53
Sn1Ta3,5.82
Sb1Ti3,5.1
Cr0.72Os0.28,3.862
Ge1Mo3,2.166
Mo3Os1,11.69
Ir1Mo3,8.174
Sn1.2Mo6.35S8,10.7
Sn1.08Eu0.1Mo6.35S8,10.9
Sn0.96Eu0.2Mo6.35S8,10.7
Sn0.84Eu0.3Mo6.35S8,10.6
Sn0.72Eu0.4Mo6.35S8,10.1
Sn0.6Eu0.5Mo6.35S8,10.2
Sn0.48Eu0.6Mo6.35S8,9.2
Sn0.36Eu0.7Mo6.35S8,7.94
Sn0.24Eu0.8Mo6.35S8,6.0
Sn0.12Eu0.9Mo6.35S8,0.94
Pb0.7Eu0.3Gd0.2Mo6S8,14.3
Pb0.7Eu0.3Mo6.35S8,13.6
Pb0.7Eu0.3Mo6.35S8,11.0
Pb1Mo6.35S8,12.0
Tb1.2Mo6S8,1.64
Dy1.2Mo6S8,1.72
Er1.2Mo6S8,2.1
Mo6S6Br2,13.8
Mo6S6I2,14.0
Mo6Se8,6.25
Mo6Se5Cl3,5.7
Mo6Se5Br3,7.1
Mo6Se5I3,4.2
Mo5.25Nb0.75Se8,6.2
Mo4Re2Te8,3.5
Mo6Te5I3,2.4
Cu2Mo6S6O2,9.0
Pb1Mo6S6O2,11.7
Nd1Rh6B6,5.4
Sm1Rh4B4,2.72
Ag0.7Mo3Se4,5.96
K0.18W1O3,3.9
Cs0.19W1O3,6.7
Ru0.46V0.54,4.92
V2Zr1,7.9
La3S4,8.1
La3Se4,7.6
Cu1Mo3S4,10.5
S2Ta1,0.49
S2Ta1,2.5
Al0.05Nb3Sn0.95,18.0
Nb3Sn0.05Sn0.95,16.9
Nb3Sn0.1Sn0.9,16.2
Nb3Sn0.2Sn0.8,15.89
Ag1La1,1.06
Nd1Rh4B4,5.31
Th1Rh4B4,4.41
Sm1Rh4B4,2.66
Lu1Rh4B4,11.249
Y1Rh4B4,10.591
Tm1Rh4B4,9.78
Er1Rh4B4,8.55
Au1Ga2,1.14
Cr4.84Ga25V70.16,12.14
Cr34.9Ga25V40.1,5.48
Ga25Mn4.92V70.08,10.1
Ga25Mn14V61,4.22
Fe4.97Ga25V70.03,8.59
Fe9.92Ga25V65.08,4.65
Co4.95Ga25V70.05,7.56
Co7.32Ga25V67.68,5.03
Sn1Te1,0.06
Sr1Ti1O3,4.0
Sr1Ti1O3,2.7
Ge0.937Te1,0.311
Ge0.95Te1,0.246
Ge0.963Te1,0.171
Ge0.976Te1,0.071
Sr1Ti1O3,0.27
Tl1Bi1Te2,0.141
Ge1Te1,0.08
Ge1Te1,0.25
Sn0.87Ag0.1Te1,1.78
Sn0.9Ag0.07Te1,1.73
Sn0.92Ag0.05Te1,1.66
Au0.98Pd0.02Ga2,1.51
Ga1V3,13.8
Ga1V3,15.3
Au1V3,2.9
Nb3Os1,0.94
Ir1Nb3,1.66
Nb3Pt1,9.2
Au1Nb3,10.56
Au1V3,2.97
Mo0.81Pt0.19,4.53
Mo2Zr1,4.57
Hf1V2,9.15
Au2Pb1,6.95
Au0.9Ga0.1,0.264
Au0.95Ga0.05,0.032
Al0.14Au0.86,0.385
Al0.05Au0.95,0.0138
Au0.95Sn0.05,0.047
Ag0.828Ga0.172,0.116
Ag0.875Ga0.125,0.019
Ag0.81In0.19,0.0074
Ag0.7Zn0.3,0.0125
Cu0.81Ga0.19,0.048
Au0.9In0.1,0.0625
Cu1Y1,0.47
Au1Sc1,2.0
Au1Lu1,0.37
Al1Sc1Au2,4.4
In1Sc1Au2,3.02
In1Y1Au2,1.9
Al0.08Au0.92,0.088
Al0.07Au0.92In0.01,0.0763
Al0.06Au0.92In0.02,0.0619
Al0.0563Au0.92In0.0237,0.0609
Al0.05Au0.92In0.03,0.0672