composition,critical_temperature_tc
Y1Ba2Cu2.94Zn0.06O7,64.9
Y1Ba2Cu2.91Zn0.09O7,56.9
Y1Ba2Cu2.85Zn0.15O7,43.2
Y1Ba2Cu2.76Zn0.24O7,13.0
Y1Ba2Cu2.979Zn0.021O7,80.2
Y1Ba2Cu2.97Zn0.03O7,77.0
Y1Ba2Cu2.88Zn0.12O7,52.0
Y1Ba2Cu2.993Zn0.007O7,84.0
Y1Ba2Cu2.985Zn0.015O7,80.0
Y1Ba2Cu2.97Zn0.03O7,76.0
Y1Ba2Cu2.955Zn0.045O7,70.1
Y1Ba2Cu2.82Zn0.18O7,38.4
Y1Ba2Cu2.79Zn0.21O7,24.2
Ca0.1Ba1.65La1.25Cu3O6.98,8.0
Ca0.1Ba1.65La1.25Cu3O7.06,41.9
Ca0.4Ba1.35La1.25Cu3O6.98,40.1
Ca0.4Ba1.35La1.25Cu3O7.05,60.0
Ca0.4Ba1.35La1.25Cu3O7.14,78.8
Ca0.4Ba1.15La1.45Cu3O7.12,7.6
Ca0.4Ba1.15La1.45Cu3O7.21,43.9
Ca0.4Ba1.15La1.45Cu3O7.23,52.8
Ce1Ir1In5,0.4
Ce1Co1In5,2.3
Ce1Co1In4.97Sn0.03,1.86
Ce1Co1In4.94Sn0.06,1.57
Ce1Co1In4.88Sn0.12,0.93
Y1Ni2B2C1,14.6
Rb1Os2O6,6.3
Na0.35Co1H2.6O3.3,4.8
Bi2Sr2Cu1O6.36,8.0
Bi2Sr1.6La0.4Cu1O6,32.0
Am1,0.62
Am1,2.2
Am1,1.5
Pr0.5Ca0.5Ba2Cu3O7-z,37.0
La1.84Sr0.16Cu0.99Co0.01O4,29.0
La1.83Sr0.17Cu0.98Co0.02O4,16.0
La1.82Sr0.18Cu0.97Co0.03O4,3.0
Pr0.88La1Ce0.12Cu1O4-z,24.0
Pr0.88La1Ce0.12Cu1O4-z,21.0
Pr0.88La1Ce0.12Cu1O4-z,16.0
Y1Ba2Cu2.94Fe0.06O6.929,85.0
Y1Ba2Cu2.9Fe0.1O6.929,71.0
Y1Ba2Cu2.84Fe0.16O6.959,53.0
Y1Ba2Cu2.68Fe0.32O6.999,26.0
Y1Ba2Cu3O7.19,89.0
Y1Ba2Cu2.94Fe0.06O7.254,91.0
Y1Ba2Cu2.9Fe0.1O7.293,87.0
Y1Ba2Cu2.84Fe0.16O7.303,85.0
Y1Ba2Cu2.68Fe0.32O7.343,82.0
Y1Ba2Cu2.6Fe0.4O7.401,82.0
Y1Ba2Cu2.5Fe0.5O7.413,80.0
Y1Ba2Cu2.4Fe0.6O7.453,62.0
Y1Ba2Cu2.3Fe0.7O7.484,60.0
La1.48Nd0.4Sr0.12Cu1O4,3.5
La1.48Nd0.4Sr0.12Cu1O4,10.0
Y1Ba2Cu3O6.94,91.4
Y1Ba2Cu3O6.98,89.4
Y1Ba2Cu3O6.99,87.8
Hg0.73Cr0.38Sr2Cu1.04O4+d,60.0
Bi2Sr2Ca1Cu2O8+d,86.0
Bi2Sr2Ca1Cu2I1O8+d,80.7
Bi2Sr2Ca1Cu2O8-d,81.7
Sr0.9Gd0.1Cu1O2,43.0
Y1Ba2Cu3O6.35,8.9
Y1Ba2Cu3O6+z,13.7
Y1Ba2Cu3O6+z,15.3
Y1Ba2Cu3O6+z,17.6
Y1Ba2Cu3O6+z,22.0
Y1Ba2Cu3O6.5,56.0
Y1Ba2Cu3O6.52,56.0
Y1Ba2Cu3O6.77,75.0
Y1Ba2Cu3O6.995,89.0
Y1Ba2Cu3O6.6,59.0
Cd2Re2O7,0.96
Sr2Cu1Cl0.8O2+z,33.0
Sr2Cu1Cl1O2+z,20.0
Sr2Cu1Cl1.2O2+z,30.0
Sr2Cu1Cl1.4O2+z,30.0
La1.82Sr0.18Cu0.98Mn0.02O4,37.0
La1.79Sr0.21Cu0.96Mn0.04O4,37.0
La1.76Sr0.24Cu0.94Mn0.06O4,37.0
La1.73Sr0.27Cu0.92Mn0.08O4,37.0
La1.7Sr0.3Cu0.9Mn0.1O4,37.0
Y1Ba2Cu2.99C0.01Oz,93.0
Y1Ba2Cu2.98C0.02Oz,92.0
Y1Ba2Cu2.96C0.04Oz,80.0
Y1Ba2Cu2.92C0.08Oz,65.0
Hg1.4Tl0.6Ba2Y1Cu2O7.92,11.7
Hg1.4Tl0.6Ba2Y0.9Ca0.1Cu2O7.88,37.0
Hg1.4Tl0.6Ba2Y0.8Ca0.2Cu2O7.83,50.0
Hg1.4Tl0.6Ba2Y0.7Ca0.3Cu2O7.81,74.5
Hg1.4Tl0.6Ba2Y0.6Ca0.4Cu2O7.78,84.6
Hg1.4Tl0.6Ba2Y0.5Ca0.5Cu2O7.74,84.0
Hg1.4Tl0.6Ba2Y0.4Ca0.6Cu2O7.71,68.6
Hg1.4Tl0.6Ba2Y0.3Ca0.7Cu2O7.68,66.4
Hg1.4Tl0.6Ba2Y0.2Ca0.8Cu2O7.66,35.3
Hg1.4Tl0.6Ba2Y0.9Ca0.1Cu2Oz,20.3
Hg1.4Tl0.6Ba2Y0.8Ca0.2Cu2Oz,45.1
Hg1.4Tl0.6Ba2Y0.7Ca0.3Cu2Oz,60.1
Hg1.4Tl0.6Ba2Y0.6Ca0.4Cu2Oz,75.5
Hg1.4Tl0.6Ba2Y0.5Ca0.5Cu2Oz,81.4
Hg1.4Tl0.6Ba2Y0.4Ca0.6Cu2Oz,90.5
Hg1.4Tl0.6Ba2Y0.3Ca0.7Cu2Oz,65.4
Hg1.4Tl0.6Ba2Y0.2Ca0.8Cu2Oz,60.5
Hg1.4Tl0.6Ba2Ca1Cu2Oz,34.0
Hg1.4Tl0.6Ba2Ca2Cu3Oz,85.1
Hg1.2Tl0.8Ba2Ca2Cu3Oz,88.1
Hg1Tl1Ba2Ca2Cu3Oz,88.6
Hg0.8Tl1.2Ba2Ca2Cu3Oz,90.7
Hg1.4Tl0.6Ba2Ca3Cu4Oz,116.0
Hg1.2Tl0.8Ba2Ca3Cu4Oz,114.0
Hg1Tl1Ba2Ca3Cu4Oz,112.0
Hg0.8Tl1.2Ba2Ca3Cu4Oz,107.6
Hg1Tl1Ba2Ca1Cu2O8,35.0
Hg1Tl1Ba2Ca2Cu3O10,76.0
Hg1Tl1Ba2Ca3Cu4O12,110.0
Hg1Tl1Ba2Ca4Cu5O14,90.0
Tl0.64Pb0.2Bi0.16Sr2Ca3Cu4Oz,122.5
Y1Ba2Cu3Oz,84.0
Hg1Ba2Cu1O4+d,96.0
Hg1Ba2Cu1O4+d,52.0
Bi2Sr2Ca1Cu2Oy,76.6
Bi2Sr2Ca0.9Nd0.1Cu2Oy,83.9
Bi2Sr2Ca0.8Nd0.2Cu2Oy,82.6
Bi2Sr2Ca0.7Nd0.3Cu2Oy,75.9
Bi2Sr2Ca0.6Nd0.4Cu2Oy,56.0
Bi2Sr2Ca0.5Nd0.5Cu2Oy,36.0
Y0.8Ca0.2Ba2Cu3O7-z,84.6
Y0.8Ca0.2Ba2Cu2.955Zn0.045O7-z,64.2
Y0.8Ca0.2Ba2Cu2.91Zn0.09O7-z,51.4
Y0.8Ca0.2Ba2Cu2.82Zn0.18O7-z,27.6
Y1Ba2Cu3O6.99,90.0
Hg1Tl1Ba2Ca1Cu2O8-z,53.0
Hg0.5Tl1.5Ba2Ca1Cu2O8-z,80.0
Fe0.5Ba1Sr1Yb1Cu2.5O7.432,29.7
Fe0.5Ba1Sr1Tm1Cu2.5O7.432,40.0
Fe0.5Ba1Sr1Er1Cu2.5O7.439,47.8
Fe0.5Ba1Sr1Y1Cu2.5O7.424,52.5
Fe0.5Ba1Sr1Ho1Cu2.5O7.462,45.2
Fe0.5Ba1Sr1Dy1Cu2.5O7.447,37.9
Hg0.5Fe0.5Sr2Y0.8Ca0.2Cu2O6.72,30.0
Hg0.5Fe0.5Sr2Y0.7Ca0.3Cu2O6.7,24.0
Hg0.5Fe0.5Sr2Y0.6Ca0.4Cu2O6.7,46.0
Hg0.5Fe0.5Sr2Y0.5Ca0.5Cu2O6.68,66.5
Hg0.5Fe0.5Sr2Y0.4Ca0.6Cu2O6.67,77.5
Hg0.5Fe0.5Sr2Y0.3Ca0.7Cu2O6.65,72.5
Hg0.5Fe0.5Sr2Y0.2Ca0.8Cu2O6.63,63.5
Bi1.74Pb0.38Sr1.88Cu1O6+z,7.0
Bi1.74Pb0.38Sr1.88Cu1O6+z,21.0
Bi1.35Pb0.85Sr1.47La0.38Cu1O6+z,35.0
Bi1.35Pb0.85Sr1.4La0.45Cu1O6+z,27.0
Mo0.2Sr2Y1.2Ce0.8Cu2.8Oz,50.0
Mo0.3Sr2Y1.2Ce0.8Cu2.7Oz,45.0
Mo0.2Sr2Y1Cu2.8Oz,72.0
Mo0.25Sr2Ce2.01Yb0.99Cu2.75O11+z,36.8
Mo0.25Sr2Ce2.01Ho0.99Cu2.75O11+z,51.4
Mo0.25Sr2Ce2.01Y0.99Cu2.75O11+z,53.0
Mo0.25Sr2Ce2.01Dy0.99Cu2.75O11+z,48.6
Mo0.25Sr2Ce2.01Gd0.99Cu2.75O11+z,47.3
Mo0.25Sr2Ce2.01Eu0.99Cu2.75O11+z,37.1
Mo0.25Sr2Ce2.01Nd0.99Cu2.75O11+z,31.7
Mo0.25Sr2Ce2.01La0.99Cu2.75O11+z,25.8
K1Os2O6,9.53
Bi1.6Pb0.4Sr2Ca2Cu3Oz,106.8
Bi1.6Pb0.4Sr2Ca1.9995Sm0.0005Cu3Oz,102.0
Bi1.6Pb0.4Sr2Ca1.999Sm0.001Cu3Oz,97.1
Bi1.6Pb0.4Sr2Ca1.995Sm0.005Cu3Oz,93.3
Bi1.6Pb0.4Sr2Ca1.99Sm0.01Cu3Oz,84.8
Bi1.6Pb0.4Sr2Ca1.9Sm0.1Cu3Oz,70.0
Bi1.6Pb0.4Sr2Ca1.5Sm0.5Cu3Oz,28.0
Bi1.95Sr1.92La0.1Cu1.03O6+z,8.5
Bi2.02Sr1.82La0.15Cu1.02O6+z,11.0
Bi1.93Sr1.85La0.23Cu0.99O6+z,15.0
Bi1.96Sr1.66La0.31Cu1.01O6+z,17.0
Bi1.99Sr1.66La0.33Cu1.01O6+z,18.5
Bi1.91Sr1.69La0.4Cu0.98O6+z,16.0
Bi1.97Sr1.56La0.45Cu1.02O6+z,13.0
Bi1.97Sr1.44La0.56Cu1.04O6+z,8.0
Bi2.03Sr1.72Cu1.25O6+z,6.0
Yb1Ba2Cu3O7-y,91.3
Yb1Ba2Cu2.99Zn0.01O7-y,87.8
Yb1Ba2Cu2.98Zn0.02O7-y,83.3
Yb1Ba2Cu2.96Zn0.04O7-y,73.9
Yb1Ba2Cu2.94Zn0.06O7-y,72.1
Yb1Ba2Cu2.92Zn0.08O7-y,70.6
Er1Ba2Cu3O7-y,93.1
Er1Ba2Cu2.99Zn0.01O7-y,89.8
Er1Ba2Cu2.98Zn0.02O7-y,84.8
Er1Ba2Cu2.96Zn0.04O7-y,76.3
Er1Ba2Cu2.94Zn0.06O7-y,68.3
Er1Ba2Cu2.92Zn0.08O7-y,62.7
Er1Ba2Cu2.9Zn0.1O7-y,60.4
Er1Ba2Cu2.85Zn0.15O7-y,52.4
Y1Ba2Cu3O7-y,93.4
Y1Ba2Cu2.99Zn0.01O7-y,88.6
Y1Ba2Cu2.98Zn0.02O7-y,84.8
Y1Ba2Cu2.96Zn0.04O7-y,75.1
Y1Ba2Cu2.94Zn0.06O7-y,69.2
Y1Ba2Cu2.92Zn0.08O7-y,62.1
Y1Ba2Cu2.9Zn0.1O7-y,60.1
Y1Ba2Cu2.85Zn0.15O7-y,55.1
Dy1Ba2Cu3O7-y,95.1
Dy1Ba2Cu2.99Zn0.01O7-y,89.5
Dy1Ba2Cu2.98Zn0.02O7-y,84.8
Dy1Ba2Cu2.96Zn0.04O7-y,76.8
Dy1Ba2Cu2.94Zn0.06O7-y,68.8
Dy1Ba2Cu2.92Zn0.08O7-y,60.6
Dy1Ba2Cu2.9Zn0.1O7-y,56.3
Dy1Ba2Cu2.85Zn0.15O7-y,51.5
Gd1Ba2Cu3O7-y,94.8
Gd1Ba2Cu2.99Zn0.01O7-y,89.8
Gd1Ba2Cu2.98Zn0.02O7-y,86.3
Gd1Ba2Cu2.96Zn0.04O7-y,72.7
Gd1Ba2Cu2.94Zn0.06O7-y,65.9
Gd1Ba2Cu2.92Zn0.08O7-y,55.9
Gd1Ba2Cu2.9Zn0.1O7-y,49.2
Gd1Ba2Cu2.85Zn0.15O7-y,42.4
Eu1Ba2Cu3O7-y,94.5
Eu1Ba2Cu2.99Zn0.01O7-y,91.3
Eu1Ba2Cu2.98Zn0.02O7-y,86.3
Eu1Ba2Cu2.96Zn0.04O7-y,74.8
Eu1Ba2Cu2.94Zn0.06O7-y,65.9
Eu1Ba2Cu2.92Zn0.08O7-y,54.1
Eu1Ba2Cu2.9Zn0.1O7-y,47.4
Eu1Ba2Cu2.85Zn0.15O7-y,33.6
Sm1Ba2Cu3O7-y,95.1
Sm1Ba2Cu2.99Zn0.01O7-y,91.3
Sm1Ba2Cu2.98Zn0.02O7-y,86.3
Sm1Ba2Cu2.96Zn0.04O7-y,74.5
Sm1Ba2Cu2.94Zn0.06O7-y,65.6
Sm1Ba2Cu2.92Zn0.08O7-y,52.1
Sm1Ba2Cu2.9Zn0.1O7-y,43.6
Sm1Ba2Cu2.85Zn0.15O7-y,31.8
Nd1Ba2Cu3O7-y,95.1
Nd1Ba2Cu2.99Zn0.01O7-y,94.5
Nd1Ba2Cu2.98Zn0.02O7-y,86.0
Nd1Ba2Cu2.96Zn0.04O7-y,72.7
Nd1Ba2Cu2.94Zn0.06O7-y,64.1
Nd1Ba2Cu2.92Zn0.08O7-y,36.6
Nd1Ba2Cu2.9Zn0.1O7-y,25.0
Bi2Sr2Ca1Cu2O8,99.0
Sm1Ba2Cu3O6.92,90.0
Sm1Ba2Cu2.98Fe0.02O6.76,84.0
Sm1Ba2Cu2.96Fe0.04O6.81,78.0
Sm1Ba2Cu2.94Fe0.06O7-z,71.0
Sm1Ba2Cu2.92Fe0.08O7-z,68.0
Sm1Ba2Cu2.9Fe0.1O6.89,66.0
Sm1Ba2Cu2.8Fe0.2O6.96,47.0
Sm1Ba2Cu2.7Fe0.3O7-z,23.0
Dy1Ba2Cu3O6.84,90.0
Dy1Ba2Cu2.98Fe0.02O6.88,88.0
Dy1Ba2Cu2.96Fe0.04O6.89,82.0
Dy1Ba2Cu2.94Fe0.06O6.88,78.0
Dy1Ba2Cu2.92Fe0.08O7-z,74.0
Dy1Ba2Cu2.9Fe0.1O6.84,70.0
Dy1Ba2Cu2.8Fe0.2O6.93,58.0
Dy1Ba2Cu2.7Fe0.3O6.96,10.0
Sm1Ba2Cu3O6.89,90.0
Sm1Ba2Cu2.98Ni0.02O7-z,83.0
Sm1Ba2Cu2.96Ni0.04O6.88,83.0
Sm1Ba2Cu2.94Ni0.06O7-z,76.0
Sm1Ba2Cu2.9Ni0.1O7-z,72.0
Sm1Ba2Cu2.8Ni0.2O7-z,50.0
Sm1Ba2Cu2.7Ni0.3O6.97,24.0
Dy1Ba2Cu3O6.68,90.0
Dy1Ba2Cu2.98Ni0.02O6.72,83.0
Dy1Ba2Cu2.96Ni0.04O6.73,82.0
Dy1Ba2Cu2.94Ni0.06O6.72,81.0
Dy1Ba2Cu2.92Ni0.08O7-z,77.0
Dy1Ba2Cu2.9Ni0.1O6.74,67.0
Dy1Ba2Cu2.8Ni0.2O6.83,63.0
Dy1Ba2Cu2.7Ni0.3O7-z,54.0
Dy1Ba2Cu2.6Ni0.4O6.83,31.0
Sm1Ba2Cu3O6.82,90.0
Sm1Ba2Cu2.98Zn0.02O6.82,81.0
Sm1Ba2Cu2.96Zn0.04O6.83,70.0
Sm1Ba2Cu2.94Zn0.06O6.85,59.0
Sm1Ba2Cu2.92Zn0.08O6.85,49.0
Sm1Ba2Cu2.9Zn0.1O6.83,29.0
Dy1Ba2Cu3O6.79,90.0
Dy1Ba2Cu2.98Zn0.02O6.87,81.0
Dy1Ba2Cu2.96Zn0.04O6.9,70.0
Dy1Ba2Cu2.94Zn0.06O6.9,62.0
Dy1Ba2Cu2.9Zn0.1O6.96,44.0
Dy1Ba2Cu2.8Zn0.2O6.95,13.0
Sm0.9Ca0.1Ba2Cu2.8Zn0.2O6.85,42.0
Sm0.8Ca0.2Ba2Cu2.8Zn0.2O6.87,45.0
Dy0.9Ca0.1Ba2Cu2.7Zn0.3O6.72,21.0
Dy0.8Ca0.2Ba2Cu2.7Zn0.3O6.78,28.0
Ca0.4La0.6Ba1.35La0.65Cu3Oy,79.1
Ca0.4La0.6Ba1.35La0.65Cu3Oy,74.4
Ca0.1La0.9Ba1.65La0.35Cu3Oy,45.4
Ca0.2La0.8Ba1.55La0.45Cu3Oy,54.0
Ca0.2La0.8Ba1.55La0.45Cu3Oy,28.1
Ca0.2La0.8Ba1.55La0.45Cu3Oy,15.0
Ca0.4La0.6Ba1.35La0.65Cu3Oy,79.4
Bi1.83Pb0.19Sr1.92Cu1.06O6+z,12.0
Bi1.69Pb0.3Sr1.92La0.16Cu1.08O6+z,24.0
Bi1.61Pb0.3Sr1.65La0.36Cu1.08O6+z,34.0
Bi1.66Pb0.34Sr1.52La0.4Cu1.1O6+z,21.0
Bi1.63Pb0.34Sr1.53La0.41Cu1.01O6+z,31.0
Bi1.6Pb0.43Sr1.39La0.5Cu1.09O6+z,5.0
Bi2Sr2Ca1Cu2O8+y,95.0
Bi2Sr2Ca0.9Ce0.1Cu2O8+y,52.0
Bi2Sr2Ca0.8Ce0.2Cu2O8+y,25.0
Sm1Ba2Cu3O6.95,95.0
Sm1Ba2Cu3O7,96.0
Hg1Ba2Cu1O4.16,88.0
Hg1Ba2Cu1O4.23,97.0
Hg1Ba2Cu1O4.28,88.0
Hg1Ba2Ca2Cu3OZ,134.5
Nd1.665Tb0.185Ce0.15Cu1O4,13.5
Nd1.48Tb0.38Ce0.15Cu1O4,8.0
Y1Ba2Cu0.27Zn0.03OZ,85.6
Y1Ba2Cu2.895Zn0.105OZ,70.0
Y1Ba2Cu3O7-y,60.0
Y1Ba2Cu3O7-y,92.7
Ba2Ca3Cu5O11-y,115.9
Tl2Ba2Cu1O6+y,15.0
Tl2Ba2Cu1O6+y,11.0
Nd1Ba2Cu3O7-y,90.0
Nd1Ba2Cu2.925Ni0.075O7-y,80.0
Nd1Ba2Cu2.85Ni0.15O7-y,75.0
Nd1Ba2Cu2.775Ni0.225O7-y,72.0
Nd1Ba2Cu2.7Ni0.3O7-y,62.0
Nd1Ba2Cu2.55Ni0.45O7-y,46.0
Y1Ba2Cu3O7-y,90.0
Y1Ba2Cu2.925Ni0.075O7-y,80.0
Y1Ba2Cu2.85Ni0.15O7-y,73.0
Y1Ba2Cu2.775Ni0.225O7-y,68.0
Y1Ba2Cu2.7Ni0.3O7-y,60.0
Y1Ba2Cu2.55Ni0.45O7-y,45.0
Ho1Ba2Cu3O7-y,90.0
Ho1Ba2Cu2.925Ni0.075O7-y,90.0
Ho1Ba2Cu2.85No0.15O7-y,85.0
Ho1Ba2Cu2.775Ni0.225O7-y,84.0
Ho1Ba2Cu2.7Ni0.3O7-y,78.0
Ho1Ba2Cu2.55Ni0.45O7-y,75.0
Tm1Ba2Cu3O7-y,90.0
Tm1Ba2Cu2.925Ni0.075O7-y,86.0
Tm1Ba2Cu2.85Ni0.15O7-y,84.0
Tm1Ba2Cu2.775Ni0.225O7-y,82.0
Tm1Ba2Cu2.7Ni0.3O7-y,80.0
Tm1Ba2Cu2.55Ni0.45O7-y,80.0
Nd1Ba2Cu2.925Fe0.075O7-y,66.0
Nd1Ba2Cu2.85Fe0.15O7-y,57.0
Nd1Ba2Cu2.775Fe0.225O7-y,46.0
Nd1Ba2Cu2.7Fe0.3O7-y,24.0
Y1Ba2Cu2.925Fe0.075O7-y,88.0
Y1Ba2Cu2.775Fe0.225O7-y,63.0
Y1Ba2Cu2.7Fe0.3O7-y,35.0
Ho1Ba2Cu2.925Fe0.075O7-y,88.0
Ho1Ba2Cu2.85Fe0.15O7-y,85.0
Ho1Ba2Cu2.775Fe0.225O7-y,64.0
Ho1Ba2Cu2.7Fe0.3O7-y,41.0
Tm1Ba2Cu2.925Fe0.075O7-y,89.0
Tm1Ba2Cu2.85Fe0.15O7-y,86.0
Tm1Ba2Cu2.7Fe0.3O7-y,77.0
Tm1Ba2Cu2.55Fe0.45O7-y,55.0
Yb0.8Pr0.2Ba2Cu3O7-y,84.0
Er0.8Pr0.2Ba2Cu3O7-y,78.0
Dy0.8Pr0.2Ba2Cu3O7-y,72.0
Gd0.8Pr0.2Ba2Cu3O7-y,67.0
Eu0.8Pr0.2Ba2Cu3O7-y,59.0
Nd0.8Pr0.2Ba2Cu3O7-y,49.0
Gd1Sr2Cu2.85Re0.15Oy,25.0
Tb1Sr2Cu2.85Re0.15Oy,26.0
Dy1Sr2Cu2.85Re0.15Oy,32.0
Ho1Sr2Cu2.85Re0.15Oy,46.5
Er1Sr2Cu2.85Re0.15OY,47.0
Tm1Sr2Cu2.85Re0.15Oy,30.0
Y1Sr2Cu2.85Re0.15Oy,44.0
Hg1Ba2Ca0.86Sr0.14Cu2O6-Z,116.0
Y1Ba2Cu3O6.96,88.9
Y1Ba2Cu4O8,62.0
Hg0.5I1Bi2Sr2Ca1Cu2OZ,82.0
Yb1Ba2Cu3O6.97,88.0
Yb0.995Pr0.05Ba2Cu3O6.97,89.5
Yb0.925Pr0.075Ba2Cu3O6.97,89.0
Yb0.9Pr0.1Ba2Cu3O6.97,88.5
Yb0.85Pr0.15Ba2Cu3O6.97,86.5
Yb0.8Pr0.2Ba2Cu3O6.97,82.0
Yb0.7Pr0.3Ba2Cu3O6.97,73.5
Pr0.95Ca0.05Sr2Cu2.7Mo0.3O7-z,17.0
Pr0.9Ca0.1Sr2Cu2.7Mo0.3O7-z,17.0
Pr0.85Ca0.15Sr2Cu2.7Mo0.3O7-z,16.0
Pr0.95Sr2.05Cu2.7Mo0.3O7-z,13.0
Pr0.9Sr2.1Cu2.7Mo0.3O7-z,17.0
Pr0.85Sr2.15Cu2.7Mo0.3O7-z,17.0
Pr0.8Sr2.2Cu2.7Mo0.3O7-z,21.0
Pb0.26Bi1.74Sr1.85Ca0.9Cu1.95Oz,68.0
Pb0.38Bi1.75Sr1.75Ca1.1Cu2Oz,89.0
Pb0.38Bi1.75Sr1.75Ca1.1Cu2Oz,87.0
Pb0.38Bi1.75Sr1.75Ca1.1Cu2Oz,71.5
Bi2.1Sr1.9Ca0.74Cu2Oz,88.0
Bi2.1Sr1.9Ca0.74Cu2Oz,80.0
Bi2.1Sr1.7Ca1.1Cu2Oz,94.0
Bi2.1Sr1.7Ca1.1Cu2OZ,80.0
Bi2.1Sr1.7Ca1.1Cu2OZ,85.5
La1.885Sr0.115Cu1O4,29.5
La1.845Nd0.04Sr0.115Cu1O4,28.5
La1.805Nd0.08Sr0.115Cu1O4,27.5
La1.785Nd0.1Sr0.115Cu1O4,27.0
La1.76Nd0.125Sr0.115Cu1O4,25.5
La1.745Nd0.14Sr0.115Cu1O4,17.5
La1.735Nd0.15Sr0.115Cu1O4,16.5
La1.685Nd0.2Sr0.115Cu1O4,11.0
La1.835Nd0.04Sr0.125Cu1O4,32.0
La1.795Nd0.08Sr0.125Cu1O4,29.5
La1.775Nd0.1Sr0.125Cu1O4,27.0
La1.75Nd0.125Sr0.125Cu1O4,17.5
La1.735Nd0.14Sr0.125Cu1O4,15.0
La1.725Nd0.15Sr0.125Cu1O4,12.5
La1.675Nd0.2Sr0.125Cu1O4,10.5
La1.575Nd0.3Sr0.125Cu1O4,9.0
La1.775Nd0.125Sr0.1Cu1O4,26.0
La1.765Nd0.125Sr0.11Cu1O4,26.0
La1.74Nd0.125Sr0.135Cu1O4,21.0
La1.725Nd0.125Sr0.15Cu1O4,33.5
La1.715Nd0.125Sr0.16Cu1O4,35.0
Bi2Sr1.9Ca1Cu1.8O8+y,85.0
Bi2Sr1.95Ca0.95Cu2.01Ni0.04O8+y,75.0
Bi2Sr2Ca1Cu1.98Zn0.02O8+y,79.0
Y0.87Pr0.13Ba2Cu3O7-d,85.0
Y0.78Pr0.22Ba2Cu3O7-d,70.0
Y0.58Pr0.42Ba2Cu3O7-d,40.0
Y0.47Pr0.53Ba2Cu3O7-d,8.0
Eu1.4Ce0.6Ru1Sr2Cu2O10-d,32.0
Gd1.4Ce0.6Ru1Sr2Cu2O10-d,42.0
Tl2Ba2Ca1Cu2O8,103.0
Tl1Bi1Sr2Ca1Cu2O7,86.0
Y1Ba2Cu3O7-d,93.1
Hg1Ba2Cu1O4.06,71.0
Hg1Ba2Cu1O4.19,83.0
Hg1Ba2Cu1O4.12,98.0
Hg1Ba2Cu1O4+x,96.0
Nd1.85Ce0.15Cu1O4-d,24.0
Nd1.65La0.2Ce0.15Cu1O4-d,23.0
Nd1.35La0.5Ce0.15Cu1O4-d,18.0
Nd1.15La0.7Ce0.15Cu1O4-d,18.0
Nd0.9La0.95Ce0.15Cu1O4-d,26.0
Nd0.85La1Ce0.15Cu1O4-d,15.0
Nd0.75La1.1Ce0.15Cu1O4-d,10.0
Nd0.8La1.1Ce0.1Cu1O4-d,23.0
Nd0.78La1.1Ce0.12Cu1O4-d,17.0
Nd0.65La1.2Ce0.15Cu1O4-d,26.0
Nd1.85Ce0.15Cu1O4-d,23.0
Nd1.66La0.2Ce0.14Cu1O4-d,23.0
Nd1.47La0.4Ce0.13Cu1O4-d,22.0
Nd1.22La0.6Ce0.12Cu1O4-d,23.0
Nd1.09La0.8Ce0.11Cu1O4-d,24.0
Nd0.9La1Ce0.1Cu1O4-d,23.0
Hg1Ba2Ca1Cu2O6.1,93.0
Hg1Ba2Ca1Cu2O6.1,92.0
Hg1Ba2Ca1Cu2O6.13,102.0
Hg1Ba2Ca1Cu2O6.14,105.0
Hg1Ba2Ca1Cu2O6.16,121.0
Hg1Ba2Ca1Cu2O6.19,122.0
Hg1Ba2Ca1Cu2O6.21,127.0
Hg1Ba2Ca1Cu2O6.24,122.0
Hg1Ba2Ca1Cu2O6.24,121.0
Hg1Ba2Ca1Cu2O6.27,110.0
Hg1Ba2Ca1Cu2O6.3,100.0
Hg1Ba2Ca1Cu2O6.31,98.0
Hg1Ba2Ca2Cu3O8.17,94.0
Hg1Ba2Ca2Cu3O8.17,98.0
Hg1Ba2Ca2Cu3O8.16,101.0
Hg1Ba2Ca2Cu3O8.2,105.0
Hg1Ba2Ca2Cu3O8.2,104.0
Hg1Ba2Ca2Cu3O8.25,132.0
Hg1Ba2Ca2Cu3O8.3,134.0
Hg1Ba2Ca2Cu3O8.3,133.0
Bi2Sr2Ca1Cu2O8+y,90.0
Bi2Sr2Ca1Cu2O8+y,89.9
Hg1Ba2Ca2Cu3O8+y,110.4
Er2Ba4Cu7O14.92,89.0
Hg1Ba2Cu1O4+y,91.0
Hg0.95Ba2Cu1O4+y,89.5
Hg0.95Ba2Cu1.05O4+y,95.2
Hg0.9Ba2Cu1O4+y,96.0
Hg0.9Ba2Cu1.05O4+y,96.0
Hg0.9Ba2Cu1.1O4+y,95.3
Hg0.85Ba2Cu1O4+y,93.0
Hg0.85Ba2Cu1.05O4+y,95.5
Hg0.85Ba2Cu1.1O4+y,94.5
Hg0.85Ba2Cu1.15O4+y,95.5
Hg0.8Ba2Cu1O4+y,94.5
Hg0.8Ba2Cu1.05O4+y,95.8
Hg0.8Ba2Cu1.1O4+y,94.3
Hg0.8Ba2Cu1.15O4+y,93.2
Hg0.8Ba2Cu1.2O4+y,95.4
Tl0.5Pb0.5Sr2Ca1Cu2O7,78.4
Tl0.5Pb0.5Sr2Ca0.9Y0.1Cu2O7,99.3
Tl0.5Pb0.5Sr2Ca0.8Y0.2Cu2O7,105.2
Tl0.5Pb0.5Sr2Ca0.65Y0.35Cu2O7,92.0
Bi2Sr2Cu1O6,7.5
Bi1.8Pb0.2Sr2Cu1O6+y,20.0
Bi1.8Pb0.2Sr2Cu1O6+y,14.0
Bi1.8Pb0.2Sr2Ca1Cu2O8+y,67.0
Bi1.8Pb0.2Sr2Ca1Cu2O8+y,78.0
Bi1.8Pb0.2Sr2Ca1Cu2O8+y,92.0
Bi1.8Pb0.2Sr2Ca1Cu2O8+y,80.0
Bi1.8Pb0.2Sr2Ca1Cu2O8+y,81.0
Y1Ba2Cu3O6.92,90.0
La1Ba1.5Ca0.5Cu3O6.79,40.0
La1Ba1.5Ca0.5Cu3O7.011,78.0
La1Ba1.5Ca0.5Cu3O7.079,76.0
La1Ba1.5Ca0.5Cu3O7.112,72.0
La1Ba1.5Ca0.5Cu3O7.16,56.0
La1.1Ba1.5Ca0.4Cu3O6.76,34.0
La1.1Ba1.5Ca0.4Cu3O6.97,70.0
La1.1Ba1.5Ca0.4Cu3O7.06,79.0
La1.1Ba1.5Ca0.4Cu3O7.11,77.0
La1.1Ba1.5Ca0.4Cu3O7.123,76.0
La1.1Ba1.5Ca0.4Cu3O7.17,70.0
La1.1Ba1.5Ca0.4Cu3O7.25,35.0
La1.2Ba1.5Ca0.3Cu3O6.72,27.0
La1.2Ba1.5Ca0.3Cu3O6.93,60.0
La1.2Ba1.5Ca0.3Cu3O7.06,75.2
La1.3Ba1.5Ca0.2Cu3O6.7,20.0
La1.3Ba1.5Ca0.2Cu3O6.92,45.0
La1.3Ba1.5Ca0.2Cu3O6.94,52.0
La1.4Ba1.5Ca0.1Cu3O6.903,25.0
La1.4Ba1.5Ca0.1Cu3O6.943,40.0
La1.4Ba1.5Ca0.1Cu3O6.982,51.0
La1.5Ba1.4Ca0.1Cu3O6.912,11.0
La1.5Ba1.4Ca0.1Cu3O6.912,16.0
La1.5Ba1.4Ca0.1Cu3O6.932,25.0
La1.5Ba1.4Ca0.1Cu3O6.964,35.0
La1.5Ba1.3Ca0.2Cu3O6.897,16.0
La1.5Ba1.3Ca0.2Cu3O6.918,25.0
La1.5Ba1.3Ca0.2Cu3O6.957,35.0
La1.5Ba1.3Ca0.2Cu3O7.002,16.0
La1.5Ba1.1Ca0.4Cu3O6.764,25.0
La1.5Ba1.1Ca0.4Cu3O6.969,40.0
La1.5Ba1.1Ca0.4Cu3O7.05,55.0
La1.5Ba1.1Ca0.4Cu3O7.082,62.0
La1.5Ba1Ca0.5Cu3O6.801,30.0
La1.5Ba1Ca0.5Cu3O6.981,50.0
La1.5Ba1Ca0.5Cu3O7.126,67.0
La1.5Ba1Ca0.5Cu3O7.195,74.0
Hg1Ba2Cu1O4+y,97.0
Hg1Ba2Ca1Cu2O6+y,123.0
Hg1Ba2Ca2Cu3O8+y,135.0
Sm1.85Ce0.15Cu1O4-y,21.0
Sm1.84Ce0.16Cu1O4-y,18.2
Sm1.83Ce0.17Cu1O4-y,12.0
Sm1.82Ce0.18Cu1O4-y,8.8
Tl2Ba2Cu1O6,91.0
Hg1Ba2Ca3Cu4O10+d,125.0
Pb2Sr2Y0.5Ca0.5Cu3O8+d,70.0
Bi2Sr2Ca1Cu2O8+y,78.6
Bi2Sr2Ca1Cu2O8+y,71.4
Bi2Sr2Ca0.8Pr0.2Cu2O8+y,83.0
Bi2Sr2Ca0.8Pr0.2Cu2O8+y,87.1
Bi2Sr2Ca0.6Pr0.4Cu2O8+y,58.0
Bi2Sr2Ca0.6Pr0.4Cu2O8+y,62.5
Bi2Sr2Ca0.55Pr0.45Cu2O8+y,9.8
Bi2Sr2Ca0.5Pr0.5Cu2O8+y,25.9
La1.94Sr0.06Cu1O4,14.0
La1.92Sr0.08Cu1O4,24.0
La1.9Sr0.1Cu1O4,29.0
La1.88Sr0.12Cu1O4,34.0
La1.75Sr0.25Cu1O4,16.0
La1.85Sr0.15Cu1O3.993,20.0
La1.85Sr0.15Cu1O3.987,12.0
Y1Ba2Cu3O6.95,92.4
B0.6C0.4Sr0.5Ba1.5Ca2Cu3O9,119.0
Nd1.85Ce0.15Cu1O4-z,17.5
Bi2Sr2Ca0.45Y0.55Cu2O8+d,9.91
Bi2Sr2Ca0.5Y0.5Cu2O8+d,34.9
Bi2Sr2Ca0.55Y0.45Cu2O8+d,50.4
Bi2Sr2Ca0.6Y0.4Cu2O8+d,65.5
Bi2Sr2Ca0.62Y0.38Cu2O8+d,72.4
Bi2Sr2Ca0.65Y0.35Cu2O8+d,80.0
Bi2Sr2Ca0.68Y0.32Cu2O8+d,81.9
Bi2Sr2Ca0.7Y0.3Cu2O8+d,87.5
Bi2Sr2Ca0.75Y0.25Cu2O8+d,87.9
Bi2Sr2Ca0.8Y0.2Cu2O8+d,86.6
Bi2Sr2Ca0.85Y0.15Cu2O8+d,84.0
Bi2Sr2Ca0.5Y0.5Cu1.98Zn0.02O8+d,16.4
Bi2Sr2Ca0.55Y0.45Cu1.98Zn0.02O8+d,34.5
Bi2Sr2Ca0.6Y0.4Cu1.98Zn0.02O8+d,53.0
Bi2Sr2Ca0.62Y0.38Cu1.98Zn0.02O8+d,58.2
Bi2Sr2Ca0.65Y0.35Cu1.98Zn0.02O8+d,65.5
Bi2Sr2Ca0.67Y0.33Cu1.98Zn0.02O8+d,71.1
Bi2Sr2Ca0.7Y0.3Cu1.98Zn0.02O8+d,74.6
Bi2Sr2Ca0.75Y0.25Cu1.98Zn0.02O8+d,78.5
Bi2Sr2Ca0.8Y0.2Cu1.98Zn0.02O8+d,77.6
Bi2Sr2Ca0.85Y0.15Cu1.98Zn0.02O8+d,77.2
Bi2Sr2Ca0.55Y0.45Cu1.96Zn0.04O8+d,19.0
Bi2Sr2Ca0.6Y0.4Cu1.96Zn0.04O8+d,33.6
Bi2Sr2Ca0.65Y0.35Cu1.96Zn0.04O8+d,47.8
Bi2Sr2Ca0.66Y0.34Cu1.96Zn0.04O8+d,51.3
Bi2Sr2Ca0.67Y0.33Cu1.96Zn0.04O8+d,51.7
Bi2Sr2Ca0.69Y0.31Cu1.96Zn0.04O8+d,52.6
Bi2Sr2Ca0.7Y0.3Cu1.96Zn0.04O8+d,54.3
Bi2Sr2Ca0.72Y0.28Cu1.96Zn0.04O8+d,70.3
Bi2Sr2Ca0.75Y0.25Cu1.96Zn0.04O8+d,75.4
Bi2Sr2Ca0.8Y0.2Cu1.96Zn0.04O8+d,75.0
Bi2Sr2Ca0.85Y0.15Cu1.96Zn0.04O8+d,71.6
Bi2Sr2Ca0.55Y0.45Cu1.95Zn0.05O8+d,19.0
Bi2Sr2Ca0.6Y0.4Cu1.95Zn0.05O8+d,29.3
Bi2Sr2Ca0.65Y0.35Cu1.95Zn0.05O8+z,42.7
Bi2Sr2Ca0.66Y0.34Cu1.95Zn0.05O8+z,43.1
Bi2Sr2Ca0.67Y0.33Cu1.95Zn0.05O8+z,37.5
Bi2Sr2Ca0.69Y0.31Cu1.95Zn0.05O8+z,32.8
Bi2Sr2Ca0.7Y0.3Cu1.95Zn0.05O8+z,48.7
Bi2Sr2Ca0.73Y0.27Cu1.95Zn0.05O8+z,45.7
Bi2Sr2Ca0.75Y0.25Cu1.95Zn0.05O8+z,49.1
Bi2Sr2Ca0.8Y0.2Cu1.95Zn0.05O8+z,75.0
Bi2Sr2Ca0.85Y0.15Cu1.95Zn0.05O8+z,65.1
Bi2Sr2Ca0.55Y0.45Cu1.94Zn0.06O8+z,11.6
Bi2Sr2Ca0.6Y0.4Cu1.94Zn0.06O8+z,26.3
Bi2Sr2Ca0.62Y0.38Cu1.94Zn0.06O8+z,41.8
Bi2Sr2Ca0.65Y0.35Cu1.94Zn0.06O8+z,31.0
Bi2Sr2Ca0.66Y0.34Cu1.94Zn0.06O8+z,18.1
Bi2Sr2Ca0.68Y0.32Cu1.94Zn0.06O8+z,29.3
Bi2Sr2Ca0.7Y0.3Cu1.94Zn0.06O8+z,29.3
Bi2Sr2Ca0.73Y0.27Cu1.94Zn0.06O8+z,40.1
Bi2Sr2Ca0.75Y0.25Cu1.94Zn0.06O8+z,36.6
Bi2Sr2Ca0.8Y0.2Cu1.94Zn0.06O8+z,70.2
Bi2Sr2Ca0.85Y0.15Cu1.94Zn0.06O8+z,59.5
Y1Ba2Cu3O7-d,90.5
Y1Ba2Cu3O7-d,84.0
Y1Ba2Cu3O7-d,72.0
Y1Ba2Cu3O7-d,53.0
Y1Ba2Cu3O7-d,39.0
Y1Ba2Cu3O7-d,66.0
Y1Ba2Cu3O7-d,57.0
Bi1.8Pb0.3Sr1.9CuOy,4.7
La1.86Sr0.14Cu1O4,40.0
La1.85Sr0.15Cu1O4,42.0
La1.75Sr0.25Cu1O4,6.0
Pr1Ba2Cu3O6.6,60.0
Pr1Ba2Cu3O6.8,81.0
Bi2Sr2Ca0.89Pr0.11Cu2O8+d,88.0
Bi2Sr2Ca0.83Pr0.17Cu2O8+d,84.0
Bi2Sr2Ca0.72Pr0.28Cu2O8+d,71.0
La2Cu1O4.012,32.0
La2Cu1O4.022,42.0
Tl2Ba2Cu1O6+Z,24.0
Tl2Ba2Cu1O6+Z,25.0
La1.86Sr0.14Cu1O4,37.0
La1.835Sr0.165Cu0.995Ni0.005O4,33.0
La1.83Sr0.17Cu0.99Ni0.01O4,29.0
La1.825Sr0.175Cu0.985Ni0.015O4,25.0
La1.8Sr0.2Cu1O4,22.0
La1.78Sr0.22Cu0.92Ni0.08O4,21.0
La1.775Sr0.225Cu0.995Ni0.005O4,21.0
La1.77Sr0.23Cu0.99Ni0.01O4,18.0
La1.78Sr0.22Cu1O4,22.0
La1.78Sr0.22Cu0.9975Zn0.0025O4,20.0
La1.78Sr0.22Cu0.995Zn0.005O4,19.0
La1.78Sr0.22Cu0.993Zn0.007O4,18.0
La1.78Sr0.22Cu0.99Zn0.01O4,15.0
La1.78Sr0.22Cu0.985Zn0.015O4,10.0
Bi2Sr2Ca1Cu2O8+Z,77.0
Tl2Ba2Cu1O6+Z,38.0
Tl2Ba2Cu1O6+Z,68.0
Tl2Ba2Cu1O6+Z,79.0
Tl2Ba2Cu1O6+Z,90.0
Tl2Ba2Ca1Cu2OZ,100.0
Y1Ba2Cu3.925Zn0.075O8,25.0
Bi2Sr2Ca1Cu2Oz,70.0
Ba2Ca2.85Mg0.15Cu5O12-z,116.6
Ba2Ca2.7Mg0.3Cu5O12-z,116.4
Ba2Ca2.4Mg0.6Cu5O12-z,116.8
Ba2Ca2.01Mg0.99Cu5O12-z,116.6
Ba2Ca3Cu5O12-z,117.5
Dy1Ba2Cu3O7,91.0
Y1Sr2Cu3O7.5,62.5
Bi3Pb1Sr3Ca3Cu4OX,80.0
Bi3Pb1Sr3Ca3Cu3.98Fe0.02OX,69.0
Bi3Pb1Sr3Ca3Cu3.96Fe0.04OX,46.5
Bi3Pb1Sr3Ca3Cu3.95Fe0.05OX,37.5
La1.85Sr0.15Cu0.99Ni0.01O4+Z,29.0
La1.85Sr0.15Cu0.98Ni0.02O4+Z,31.0
La1.85Sr0.15Cu0.97Ni0.03O4+Z,28.0
Bi2Sr2Ca1Cu2O8+Z,78.0
Bi2Sr2Ca1Cu2O8+Z,81.0
Bi2Sr2Ca1Cu2O8+Z,76.0
Y1Ba2Cu3O7-Z,84.0
La1.84Sr0.16Cu1O4,39.0
La1.78Sr0.22Cu1O4,29.0
Bi2Sr2Ca1Cu2O8+Z,82.0
Bi2Sr2Ca1Cu2O8+Z,73.0
Bi2Sr2Ca0.79Y0.21Cu2O8+Z,90.0
Bi2Sr2Ca0.79Y0.21Cu2O8+Z,77.0
Bi2Sr2Ca0.72Y0.28Cu2O8+Z,91.0
Bi2Sr2Ca0.72Y0.28Cu2O8+Z,81.0
Bi2Sr2Ca0.64Y0.36Cu2O8+Z,88.0
Bi2Sr2Ca0.57Y0.43Cu2O8+Z,86.0
La0.5Lu0.5Ba2Cu3OZ,87.0
La0.5Yb0.5Ba2Cu3OZ,81.0
La0.5Tm0.5Ba2Cu3OZ,84.0
La0.5Er0.5Ba2Cu3OZ,87.0
La0.5Ho0.5Ba2Cu3OZ,87.0
La0.5Y0.5Ba2Cu3OZ,84.0
La0.5Dy0.5Ba2Cu3OZ,90.0
La0.5Gd0.5Ba2Cu3OZ,88.0
La0.5Eu0.5Ba2Cu3OZ,88.0
La0.5Sm0.5Ba2Cu3OZ,90.0
La0.5Nd0.5Ba2Cu3OZ,90.0
La0.5Pr0.5Ba2Cu3OZ,94.0
Y1Ba2Cu3O6.93,93.0
Y1Ba2Cu3O6.91,93.0
Y1Ba2Cu3O6.94,90.5
Y1Ba2Cu3O6.87,93.5
Y1Ba2Cu3O6.9,92.6
Y1Ba1.5Sr0.5Cu3O6.96,89.0
Y1Ba1Sr1Cu3O6.98,82.0
Y1Ba1Sr1Cu3O6.96,83.5
Y1Ba1Sr1Cu3O6.8,51.5
Y1Ba1Sr1Cu3O6.685,34.0
Y1Ba0.75Sr1.25Cu3O6.91,80.0
Y1Ba0.75Sr1.25Cu3O6.94,74.0
Y1Ba0.5Sr1.5Cu3OZ,80.0
Y1Ba0.5Sr1.5Cu3OZ,75.0
Y1Ba0.5Sr1.5Cu3OZ,78.0
La1.865Sr0.135Cu1O4,31.0
La1.85Sr0.15Cu1O4,30.5
La1.85Sr0.15Cu1O4,27.5