composition,critical_temperature_tc
La1.9Gd0.1Ba2Ca0.2Cu4.2O9.839,15.0
La1.8Gd0.2Ba2Ca0.4Cu4.4O10.344,39.0
La1.7Gd0.3Ba2Ca0.6Cu4.6O10.9,64.0
La1.6Gd0.4Ba2Ca0.8Cu4.8O11.401,76.0
La1.5Gd0.5Ba2Ca1Cu5O11.892,79.0
La1Gd1Ba2Ca2Cu6O14.1,79.0
Sr2Ru1O4,1.44
Ru1Sr2Gd1.6Ce0.4Cu2O10+z,30.9
Ru1Sr2Gd1.5Ce0.5Cu2O10+z,36.95
Ru1Sr2Gd1.4Ce0.6Cu2O10+z,42.3
Ru1Sr2Gd1.3Ce0.7Cu2O10+z,40.0
Ru1Sr2Gd1.2Ce0.8Cu2O10+z,33.15
Ru1Sr2Eu1.4Ce0.6Cu2O10+z,37.5
Ru1Sr2Eu1Cu2O8,32.0
Sr0.4K0.6Bi1O3,11.3
Sr0.4K0.6Bi1O3,11.55
Bi2.1Sr2.1Ca0.8Cu2Oz,88.0
Bi2.1Sr2.1Ca0.8Cu1.98Ni0.02S0.02Oz,80.0
Bi2.1Sr2.1Ca0.8Cu1.9Ni0.1S0.1Oz,78.0
Bi2.1Sr2.1Ca0.8Cu1.8Ni0.2S0.2Oz,78.0
Bi1.9Pb0.5Sr2Ca2Cu3O10+z,110.0
Y1Ba2Cu4O8,77.7
Y1Ba1.76Sr0.24Cu4O8,76.0
Y1Ba1.46Sr0.54Cu4O8,79.5
Y1Ba1.4Sr0.6Cu4O8,80.5
Y1Ba2Cu4O8,80.5
Y1Ba1.8Sr0.2Cu4O8,79.8
Y1Ba1.6Sr0.4Cu4O8,80.5
Y1Ba1.4Sr0.6Cu4O8,81.2
Sm1La0.8Sr0.2Cu1O4,24.0
Cd2Re2O7,1.31
Cd2Re2O7,1.0
Cd2Re2O7,1.1
Tl0.5Pb0.5Sr1.84Nd0.16Ca1Cu2O7,102.0
Y1Ba2Cu3O7-z,90.5
Tl1Ba2Ca2Cu3Oz,130.0
Ba0.5Nb1O2-z,19.75
Ba0.25Nb1O2-z,18.05
La1.7Nd0.3Ca0.6Ba2Cu4.6O11.892,78.0
La1.6Nd0.4Ca0.8Ba2Cu4.8O10+z,70.0
La1.5Nd0.5Ca1Ba2Cu5O11.872,78.0
La1.9Gd0.1Ca0.2Ba2Cu4.2O10+z,22.0
La1.7Gd0.3Ca0.6Ba2Cu4.6O10+z,64.0
La1.6Gd0.4Ca0.8Ba2Cu4.8O10+z,77.0
La1.5Gd0.5Ca1Ba2Cu5O10+z,80.0
La2.3Yb0.1Ba2.3Ca0.2Cu5O11.805,25.0
La2.1Yb0.2Ba2.1Ca0.4Cu5O11.802,47.0
La1.9Yb0.3Ba1.9Ca0.6Cu5O11.797,60.0
La1.7Yb0.4Ba1.7Ca0.8Cu5O11.795,76.0
La1.5Yb0.5Ba1.5Ca1Cu5O11.785,76.0
La1.3Yb0.6Ba1.3Ca1.2Cu5O11.74,73.0
La1.1Yb0.7Ba1.1Ca1.4Cu5O11.692,70.0
La1.9Y0.1Ba2Ca0.2Cu4.2Oz,21.0
La1.8Y0.2Ba2Ca0.4Cu4.4Oz,42.0
La1.7Y0.3Ba2Ca0.6Cu4.6Oz,65.0
La1.6Y0.4Ba2Ca0.8Cu4.8Oz,78.0
La1.5Y0.5Ba2Ca1Cu5Oz,78.0
La2.5Y0.5Ca1Ba3Cu7O16.574,80.0
La1Ba2Cu3O7,89.6
La0.9Pr0.1Ba2Cu3O7,68.3
La0.8Pr0.2Ba2Cu3O7,59.8
La0.7Pr0.3Ba2Cu3O7,57.1
La0.6Pr0.4Ba2Cu3O7,54.8
La0.5Pr0.5Ba2Cu3O7,51.7
Y1Ba2Cu3.964Ni0.036O8,63.0
Y1Ba2Cu3.98Zn0.02O8,68.0
Y1Ba2Cu3.96Zn0.04O8,56.0
Y0.625La0.375Ba2Cu3O7-z,85.2
Y0.5625La0.3375Pr0.1Ba2Cu3O7-z,63.7
Y0.5La0.3Pr0.2Ba2Cu3O7-z,44.8
Y0.4375La0.2625Pr0.3Ba2Cu3O7-z,28.9
Y0.625La0.375Ba2Cu3O7-z,50.0
Y0.5625La0.3375Pr0.1Ba2Cu3O7-z,40.0
Y0.5La0.3Pr0.2Ba2Cu3O7-z,21.0
Y0.9Pr0.1Ba2Cu3O6.95,78.5
Y0.8Pr0.2Ba2Cu3O6.95,58.5
Y0.7Pr0.3Ba2Cu3O6.95,39.3
Y0.65Pr0.35Ba2Cu3O6.95,33.0
Y0.6Pr0.4Ba2Cu3O6.95,20.4
Y1Ba2Cu3O6.85,84.4
Y0.9Pr0.1Ba2Cu3O6.85,61.5
Y0.8Pr0.2Ba2Cu3O6.85,45.2
Y0.7Pr0.3Ba2Cu3O6.85,27.4
Y0.65Pr0.35Ba2Cu3O6.85,16.3
Y1Ba2Cu3O6.75,61.1
Y0.9Pr0.1Ba2Cu3O6.75,52.2
Y0.8Pr0.2Ba2Cu3O6.75,41.5
Y0.7Pr0.3Ba2Cu3O6.75,25.2
Y0.65Pr0.35Ba2Cu3O6.75,6.3
Y1Ba2Cu3O6.6,49.6
Y0.9Pr0.1Ba2Cu3O6.6,44.1
Y0.8Pr0.2Ba2Cu3O6.6,37.0
Y0.7Pr0.3Ba2Cu3O6.6,28.5
Y0.65Pr0.35Ba2Cu3O6.6,21.5
Y1Ba2Cu3O6.5,31.1
Y0.9Pr0.1Ba2Cu3O6.5,21.1
Y0.8Pr0.2Ba2Cu3O6.5,11.1
La1.89Ba0.11Cu1O4,17.8
Hg0.75W0.25Sr2Gd1.5Ce0.5Cu2Oz,15.6
Hg0.75Mo0.25Sr2Gd1.5Ce0.5Cu2Oz,27.0
Sm1.5725Y0.2775Ce0.15Cu1O4,10.3
Eu1.84075Y0.00925Ce0.15Cu1O4,5.2
Eu1.8315Y0.0185Ce0.15Cu1O4,4.3
Pr1.665Gd0.185Ce0.15Cu1O4,15.5
Pr1.48Gd0.37Ce0.15Cu1O4,14.5
Pr1.295Gd0.555Ce0.15Cu1O4,13.5
Pr1.11Gd0.74Ce0.15Cu1O4,12.5
Pr0.925Gd0.925Ce0.15Cu1O4,9.5
Pr0.74Gd1.11Ce0.15Cu1O4,7.5
Bi2Sr2Ca2Cu3O10,109.0
Bi2Sr2Ca0.9Y0.1Cu2O8.23,85.0
Y1Ba2Cu3O6.98,89.8
Y1Ba2Cu3O6.96,90.75
Y1Ba2Cu3O6.52,52.8
Ho1Ba2Cu2.94O6.94,77.0
Ho1Ba2Cu2.94O6.48,20.0
Y1Ba2Cu3H0.08O7,88.0
Y1Ba2Cu3H0.21O7,86.0
Y1Ba2Cu3H0.34O7,66.0
Y1Ba2Cu3H0.48O7,48.0
Y1Ba2Cu3O7-z,92.5
Y1Ba2Cu2.985Fe0.015O7-z,91.5
Y1Ba2Cu2.96Fe0.04O7-z,90.0
Y1Ba2Cu2.87Fe0.13O7-z,78.0
Y1Ba2Cu2.83Fe0.17O7-z,72.0
Y1Ba2Cu2.78Fe0.22O7-z,64.0
Bi0.5Sr1.5Y1.15Ce0.85Cu2O8-z,34.0
Y1Ba2Cu2.88Co0.12O7,81.0
Y1Ba2Cu2.85Zn0.15O7,42.0
Bi2Sr2Ca1Cu2Oz,86.0
Bi2Sr2Ca1Cu2Oz,88.0
Bi2Sr2Ca1Cu2Oz,89.5
Bi2Sr2Ca1Cu2Oz,83.25
Bi2Sr2Ca1Cu2Oz,80.5
Bi2.1Sr1.93Ca0.97Cu2O8+z,76.2
Bi2.1Sr1.93Ca0.92Pr0.05Cu2O8+z,70.6
Bi2.1Sr1.93Ca0.87Pr0.1Cu2O8+z,70.0
Bi2.1Sr1.93Ca0.77Pr0.2Cu2O8+z,57.0
Bi2.1Sr1.93Ca0.72Pr0.25Cu2O8+z,47.4
Bi2.1Sr1.93Ca0.67Pr0.3Cu2O8+z,30.3
Bi2.1Sr1.93Ca0.57Pr0.4Cu2O8+z,0.1
Bi2.1Sr1.93Ca0.92Gd0.05Cu2O8+z,78.6
Bi2.1Sr1.93Ca0.87Gd0.1Cu2O8+z,63.3
Bi2.1Sr1.93Ca0.82Gd0.15Cu2O8+z,60.9
Bi2.1Sr1.93Ca0.77Gd0.2Cu2O8+z,49.6
Bi2.1Sr1.93Ca0.67Gd0.3Cu2O8+z,19.1
Bi2.1Sr1.93Ca0.92Er0.05Cu2O8+z,68.2
Bi2.1Sr1.93Ca0.87Er0.1Cu2O8+z,66.6
Bi2.1Sr1.93Ca0.82Er0.15Cu2O8+z,69.7
La1.925Sr0.075Cu1O4,18.0
La1.913Sr0.087Cu1O4,25.0
La1.9Sr0.1Cu1O4,27.0
La1.888Sr0.112Cu1O4,27.0
La1.875Sr0.125Cu1O4,27.0
La1.862Sr0.138Cu1O4,33.0
La1.837Sr0.162Cu1O4,36.0
La1.825Sr0.175Cu1O4,35.0
La1.812Sr0.188Cu1O4,33.0
La1.788Sr0.213Cu1O4,23.0
La1.775Sr0.225Cu1O4,20.0
La1.763Sr0.237Cu1O4,13.0
Hg1Ba2Cu1O4+d,97.0
Pr0.5Y0.5Ba2Cu3O7-d,22.0
Pr0.6Ca0.4Ba2Cu3O7-d,17.5
Pr0.5Ca0.5Ba2Cu3O7-x,41.0
Ba0.64K0.36Bi1O3,28.5
Bi2.1Sr1.93Ca0.77Er0.2Cu2O8+z,61.9
Bi2.1Sr1.93Ca0.72Er0.25Cu2O8+z,51.7
Bi2.1Sr1.93Ca0.67Er0.3Cu2O8+z,36.4
Bi2.1Sr1.93Ca0.57Er0.4Cu2O8+z,0.1
Y1Ba2Cu2.85Zn0.15O7-z,42.0
Y1Ba2Cu2.85Fe0.024Zn0.126O7-Z,47.2
Y1Ba2Cu2.85Fe0.049Zn0.101O7-Z,46.6
Y1Ba2Cu2.85Fe0.075Zn0.075O7-z,50.0
Y1Ba2Cu2.85Fe0.097Zn0.052O7-z,59.0
Y1Ba2Cu2.85Fe0.126Zn0.024O7-Z,67.9
Y1Ba2Cu2.85Fe0.15O7-z,73.1
Y1Ba2Cu2.85Ni0.15O7-z,73.7
Y1Ba2Cu2.85Ga0.025Ni0.124O7-z,74.4
Y1Ba2Cu2.85Ga0.049Ni0.101O7-z,70.7
Y1Ba2Cu2.85Ga0.075Ni0.075O7-z,65.0
Y1Ba2Cu2.85Ga0.097Ni0.052O7-z,66.6
Y1Ba2Cu2.85Ga0.126Ni0.024O7-z,74.4
Y1Ba2Cu2.85Ga0.15O7-z,76.4
Y1Ba2Cu2.85Zn0.15O7-z,44.4
Y1Ba2Cu2.85Ga0.025Zn0.124O7-z,54.2
Y1Ba2Cu2.85Ga0.049Zn0.101O7-z,63.0
Y1Ba2Cu2.85Ga0.075Zn0.075O7-z,66.3
Y1Ba2Cu2.85Ga0.101Zn0.049O7-z,63.7
Y1Ba2Cu2.85Ga0.126Zn0.024O7-z,66.3
Y1Ba2Cu2.85Ga0.15O7-z,75.7
Y1Ba2Cu2.85Zn0.15O7-z,41.6
Y1Ba2Cu2.85Ni0.025Zn0.124O7-z,47.9
Y1Ba2Cu2.85Ni0.051Zn0.099O7-z,52.5
I1Bi2.2Sr1.8Ca1Cu2O8+y,73.6
Bi2Sr2Ca1Cu2O8+d,90.7
Bi2Sr2Ca1Cu2O8,95.0
La1.82Sr0.18Cu1O4,34.6
La1.81Sr0.19Cu1O4,32.1
La1.8Sr0.2Cu1O4,30.5
La1.77Sr0.23Cu1O4,21.3
La1.76Sr0.24Cu1O4,20.0
La1.74Sr0.26Cu1O4,9.0
La1.73Sr0.27Cu1O4,12.0
Bi2Sr2Ca1Cu2O8+d,84.0
Bi2Sr2Ca1Cu1.994Fe0.006O8+d,81.5
Bi2Sr2Ca1Cu1.982Fe0.018O8+d,71.5
Bi2Sr2Ca1Cu1.977Fe0.023O8+d,66.0
Bi2Sr2Ca1Cu1.954Fe0.046O8+d,69.5
Bi2Sr2Ca1Cu1.91Fe0.09O8+d,69.5
Bi2Sr2Ca1Cu1.991Ni0.009O8+d,79.5
Bi2Sr2Ca1Cu1.983Ni0.017O8+d,75.5
Bi2Sr2Ca1Cu1.982Ni0.018O8+d,74.0
Bi2Sr2Ca1Cu1.998Zn0.002O8+d,83.0
Bi2Sr2Ca1Cu1.996Zn0.004O8+d,82.5
Gd1Ba2Cu4O8,74.7
Er1Ba2Cu4O8,80.0
Tm1Ba2Cu4O8,79.9
La1.925Sr0.075Cu1O4+d,23.0
La1.07Pr0.85Sr0.08Cu1O4,9.0
La1.04Pr0.85Sr0.11Cu1O4,17.0
La1.03Pr0.85Sr0.12Cu1O4,18.0
La1.02Pr0.85Sr0.13Cu1O4,22.0
La1.01Pr0.85Sr0.14Cu1O4,25.0
La1Pr0.85Sr0.15Cu1O4,28.0
La0.97Pr0.85Sr0.18Cu1O4,28.0
La0.95Pr0.85Sr0.2Cu1O4,27.0
La0.92Pr0.85Sr0.23Cu1O4,17.0
La0.9Pr0.85Sr0.25Cu1O4,10.0
Y1Ba2Cu3O7-d,90.0
Y1Ba2Cu3O7-d,92.3
Y1Ba2Cu2.979Zn0.021O7-d,84.0
Y1Ba2Cu2.954Zn0.047O7-d,73.8
Y1Ba2Cu2.91Zn0.09O7-d,57.5
Y1Ba2Cu3O7-d,91.33
Y1Ba2Cu3O7-d,91.075
Y1Ba2Cu3O7-d,92.42
Y1Ba2Cu3O7,92.12
Y1Ba2Cu3O7,86.4
Bi2Sr2Ca1Cu2O8+y,85.7
Bi2Sr2Ca1Cu2O8+y,63.58
Bi2Sr2Ca1Cu2O8+y,50.33
Hg0.66Pb0.33Ba2Ca2Cu3Oy,132.0
Hg1Ba2Cu1O4+d,92.0
Tl1Ba0.6Sr0.4La1Cu1O5,20.0
Tl1Ba0.3Sr0.7La1Cu1O5,30.0
Tl1Sr1La1Cu1O5,32.0
Tl1Sr0.7Ca0.3La1Cu1O5,32.0
Tl1Sr0.4Ca0.6La1Cu1O5,26.0
Tl1Ba0.6Ca0.4La1Cu1O5,14.0
Tl1Ba0.4Ca0.6La1Cu1O5,16.0
Tl1Ba0.2Ca0.8La1Cu1O5,13.0
Bi2Sr2Ca1Cu2O8+y,87.0
Ca0.4La1.25Ba1.35Cu3O6.99,38.0
Ca0.4La1.25Ba1.35Cu3O7.055,57.0
Ca0.4La1.25Ba1.35Cu3O7.135,76.0
Ca0.1La1.25Ba1.65Cu3O6.985,5.0
Ca0.1La1.25Ba1.65Cu3O7.06,38.0
La1.84Sr0.16Cu0.99Zn0.01O4,28.8
La1.84Sr0.16Cu0.98Zn0.02O4,18.6
La1.84Sr0.16Cu0.97Zn0.03O4,7.85
La1.84Sr0.16Cu1O4,39.3
La1.78Sr0.22Cu0.99Zn0.01O4,18.3
La1.78Sr0.22Cu0.98Zn0.02O4,9.6
La1.78Sr0.22Cu0.97Zn0.03O4,3.3
La1.78Sr0.22Cu1O4,25.9
Hg1Ba2Ca2Cu3O8+d,132.0
Bi2Sr2Ca1Cu2O8,82.4
Tl0.97Sr1.99Lu0.9Ca0.12Cu2.02Oy,39.0
Tl1.04Sr1.98Lu0.78Ca0.22Cu1.98Oy,72.0
Tl0.98Sr2.05Lu0.68Ca0.26Cu2.03Oy,69.0
Tl0.99Sr2.03Lu0.57Ca0.36Cu2.05Oy,64.0
Tl1.01Sr2.02Lu0.49Ca0.47Cu2.03Oy,46.0
Tl1.05Sr2.02Lu0.42Ca0.53Cu1.98Oy,30.0
Tl1.07Sr2.04Lu0.29Ca0.61Cu1.99Oy,9.0
Tl0.97Sr1.99Lu0.9Ca0.12Cu2.02Oy,6.0
Tl1.04Sr1.98Lu0.78Ca0.22Cu1.98Oy,31.0
Tl0.98Sr2.05Lu0.68Ca0.26Cu2.03Oy,42.0
Tl0.99Sr2.03Lu0.57Ca0.36Cu2.05Oy,62.0
Tl1.01Sr2Lu0.49Ca0.47Cu2.03Oy,81.0
Tl1.05Sr2.02Lu0.42Ca0.53Cu1.98Oy,84.0
Tl1.07Sr2.04Lu0.29Ca0.61Cu1.99Oy,77.0
Tl1.25Sr1.99Ca0.77Cu1.99Oy,70.0
Y1Ba2Cu3O6.65,57.0
Y0.95Ca0.05Ba2Cu3O6.7,70.0
Y0.9Ca0.1Ba2Cu3O6.7,75.0
Y0.85Ca0.15Ba2Cu3O6.71,78.0
Y1Ba2Cu4O7.95,82.0
Y0.8Pr0.2Ba2Cu4O7.95,74.0
Y0.6Pr0.4Ba2Cu4O7.95,63.0
Y1Ba2Cu3.985Zn0.015O7.95,70.0
Y1Ba2Cu0.95Zn0.05O7.95,46.0
Y1Ba2Cu0.97Zn0.03O7.95,59.0
Y1Ba1.8Sr0.2Cu4O7.95,82.0
Y1Ba1.6Sr0.4Cu4O7.95,82.0
Y1Ba1.4Sr0.6Cu4O7.95,82.0
Y1Ba2Cu3O7-d,90.4
Y1Ba2Cu3O7-d,90.3
Yb1Ba2Cu3O7-y,90.0
Yb1Ba2Cu2.95Ga0.05O7-y,90.0
Yb1Ba2Cu2.9Ga0.1O7-y,90.0
Yb1Ba2Cu2.85Ga0.15O7-y,90.0
Yb1Ba2Cu2.8Ga0.2O7-y,90.0
Yb1Ba2Cu2.7Ga0.3O7-y,90.0
Nd1Ba2Cu3O6.76,94.0
Nd1Ba2Cu2.95Ga0.05O6.59,53.0
Nd1Ba2Cu2.9Ga0.1O6.61,38.0
Nd1Ba2Cu2.85Ga0.15O6.62,23.0
Er1Ba2Cu3O6.85,93.0
Er1Ba2Cu2.95Ga0.05O6.75,90.0
Er1Ba2Cu2.9Ga0.1O6.78,86.0
Er1Ba2Cu2.85Ga0.15O6.69,82.0
Er1Ba2Cu2.8Ga0.2O7-y,81.0
Er1Ba2Cu2.7Ga0.3O7-y,80.0
Y1Ba2Cu3O6.82,93.0
Y1Ba2Cu2.95Ga0.05O6.69,88.0
Y1Ba2Cu2.9Ga0.1O6.8,81.0
Y1Ba2Cu2.85Ga0.15O7-y,78.0
Y1Ba2Cu2.8Ga0.2O7-y,68.0
Y1Ba2Cu2.7Ga0.3O7-y,70.0
Dy1Ba2Cu3O6.75,94.0
Dy1Ba2Cu2.95Ga0.05O6.69,83.0
Dy1Ba2Cu2.9Ga0.1O6.7,68.0
Dy1Ba2Cu2.8Ga0.2O6.78,50.0
Dy1Ba2Cu2.7Ga0.3O6.77,39.0
Gd1Ba2Cu3O7-y,94.0
Gd1Ba2Cu2.9Ga0.1O7-y,62.0
Gd1Ba2Cu2.7Ga0.3O7-y,21.0
Eu1Ba2Cu3O6.82,94.0
Eu1Ba2Cu2.95Ga0.05O6.78,79.0
Eu1Ba2Cu2.9Ga0.1O6.74,52.0
Eu1Ba2Cu2.85Ga0.15O6.76,43.0
Eu1Ba2Cu2.8Ga0.2O6.63,14.0
Bi1.65Pb0.35Sr2Ca2Cu3O10,108.6
Bi1.65Pb0.35Sr2Ca2Cu3FOz,117.2
Y2Ba4Cu7O15.1,92.8
Y1Ba2Cu3F0.1O7,91.0
Y1Ba2Cu3F0.2O7,91.0
Y1Ba2Cu3O6.7,62.5
Y1Ba2Cu3F0.1O6.7,71.0
La2Cu1O4.017,34.7
La2Cu1O4.034,30.7
La2Cu1O4.047,29.7
La2Cu1O4.054,29.1
La2Cu1O4.066,38.0
La2Cu1O4.07,40.4
La2Cu1O4.095,37.8
Hg1Ba2Cu1O4,96.0
Hg1Ba2Ca1Cu2O6,125.0
Hg1Ba2Ca2Cu3O8,134.0
Hg0.9Pb0.1Ba2Ca2Cu3O8,130.0
Hg0.8Pb0.2Ba2Ca2Cu3O8,132.0
Y1Ba2Cu3O6.95,93.05
Tl0.5Pb0.5Sr4Cu2C1O3O7,71.0
Y1Ba2Cu3O7-d,93.0
Bi2Sr2Ca1Cu2O8+x,90.4
Bi2Sr2Ca1Cu2O8.197,74.0
Bi2Sr2Ca0.9Pr0.1Cu2O8.234,75.8
Bi2Sr2Ca0.8Pr0.2Cu2O8.282,70.0
Bi2Sr2Ca0.7Pr0.3Cu2O8.299,60.8
Bi2Sr2Ca0.6Pr0.4Cu2O8.316,57.0
Bi2Sr2Ca0.5Pr0.5Cu2O8.329,5.1
Pr1.85Ce0.15Cu1O4-y,20.5
Bi1.7Pb0.3Sr2Ca2Cu3O10,106.5
Bi1.7Pb0.3Sr2Ca2Cu3F0.2O9.8,111.0
Bi1.7Pb0.3Sr2Ca2Cu3F0.5O9.5,113.0
Bi1.7Pb0.3Sr2Ca2Cu3F0.8O9.2,117.6
Hg1Ba2Ca1Cu2O6+d,124.0
Y1Ba2Cu3O7,88.3
Y1Ba2Cu3O7,86.7
Nd1.85Ce0.15Cu1O4-d,18.2
Tl1Sr1La1Cu1O5.09,30.0
Tl1Ba0.3Sr0.7La1Cu1O5.11,25.0
Tl1Ba0.6Sr0.4La1Cu1O5.16,22.0
Hg1Ba2Ca2Cu3Oy,135.0
Hg1Ba2Ca1Cu2Oy,127.0
Hg1Ba2Cu1Oy,96.0
Nd1.85Ce0.15Cu1O4,22.5
Nd1.85Ce0.15Cu0.999Ni0.001O4,20.0
Nd1.85Ce0.15Cu0.997Ni0.003O4,16.0
Nd1.85Ce0.15Cu0.995Ni0.005O4,12.0
Nd1.85Ce0.15Cu0.993Ni0.007O4,8.0
Nd1.85Ce0.15Cu0.993Ni0.007O4,5.5
Nd1.85Ce0.15Cu0.998Fe0.002O4,19.5
Nd1.85Ce0.15Cu0.995Fe0.005O4,16.5
Nd1.85Ce0.15Cu0.99Fe0.01O4,13.0
Nd1.85Ce0.15Cu0.985Fe0.015O4,6.5
Nd1.85Ce0.15Cu0.995Zn0.005O4,18.0
Nd1.85Ce0.15Cu0.99Zn0.01O4,15.5
Nd1.85Ce0.15Cu0.987Zn0.013O4,14.5
Nd1.85Ce0.15Cu0.985Zn0.015O4,14.0
Nd1.85Ce0.15Cu0.98Zn0.02O4,13.0
Nd1.85Ce0.15Cu0.975Zn0.025O4,12.0
Nd1.85Ce0.15Cu0.97Zn0.03O4,11.0
Nd1.85Ce0.15Cu0.96Zn0.04O4,9.5
Nd1.85Ce0.15Cu0.95Zn0.05O4,8.0
Y1Ba2Cu3O6.63,62.0
Y1Ba2Cu2.97Zn0.03O6.63,40.0
Y1Ba2Cu2.94Zn0.06O6.63,20.0
Y1Ba2Cu3O6.03,92.0
Y1Ba2Cu3O6.78,82.0
Y1Ba2Cu3O6.88,92.0
Tl1Ba1.1La0.9Cu1O5,38.4
Tl1Ba1.2La0.8Cu1O5,45.0
Tl1Ba1.3La0.7Cu1O5,38.8
Tl1Ba1.4La0.6Cu1O5,24.0
Eu1Ba2Cu4O8,70.5
Eu0.8Pr0.2Ba2Cu4O8,63.5
Eu0.6Pr0.4Ba2Cu4O8,40.0
Eu0.5Pr0.5Ba2Cu4O8,27.5
Y0.9Pr0.1Ba2Cu4O8,72.5
Y0.8Pr0.2Ba2Cu4O8,70.5
Y0.7Pr0.3Ba2Cu4O8,66.5
Y0.6Pr0.4Ba2Cu4O8,60.0
Y0.5Pr0.5Ba2Cu4O8,52.5
Y0.4Pr0.6Ba2Cu4O8,40.5
Y0.3Pr0.7Ba2Cu4O8,29.0
Tl1Ba1.6La0.4Cu1O5,34.0
Tl1Ba1.5La0.5Cu1O5,35.0
Tl1Ba1.4La0.6Cu1O5,38.0
Tl1Ba1.3La0.7Cu1O5,40.0
Tl1Ba1.2La0.8Cu1O5,30.0
Tl1Sr1.2La0.8Cu1O5,27.0
Tl1Sr1La1Cu1O8,32.0
Tl1Ba2Ca0.7Gd0.3Cu2O7,78.0
Tl1Sr2Ca0.6Gd0.4Cu2O7,65.0
Tl1Sr2Ca0.4Gd0.6Cu2O7,60.0
Y0.8Pr0.2Ba2Cu3O7,68.0
Y0.7Pr0.3Ba2Cu3O7,53.0
Y0.6Pr0.4Ba2Cu3O7,40.0
Pb2Sr2Y0.7Ca0.3Cu3O8+d,79.0
Pb2Sr2Y0.1Cu3O8+d,70.0
Pb2Sr2Sm0.5Eu0.5Cu3O8+d,45.0
Sr0.875Nd0.125Cu1O2-d,20.0
Sr0.9Nd0.1Cu1O2-d,10.0
Hg1Ba2Cu1O4.03,1.0
Hg1Ba2Cu1O4.09,50.0
Hg1Ba2Cu1O4.17,78.0
Hg1Ba2Cu1O4.18,97.0
Hg1Ba2Cu1O4.28,80.0
Hg1Ba2Cu1O4.28,87.0
Hg1Ba2Cu1O4.39,22.0
Sm1.85Ce0.15Cu1O4-y,20.5
Sm1.84Ce0.16Cu1O4-y,21.0
Sm1.83Ce0.17Cu1O4-y,18.3
Sm1.82Ce0.18Cu1O4-y,16.8
Sm1.85Ce0.15Cu1O4-y,23.3
Sm1.84Ce0.16Cu1O4-y,22.9
Sm1.83Ce0.17Cu1O4-y,21.4
Sm1.82Ce0.18Cu1O4-y,18.8
Sr0.7Ca0.3Cu1O2,99.0
Hg1Ba2Ca1.73Pb0.17Cu2.86O8+d,131.5
Bi2Sr2Ca1Cu2O8+x,81.8
Bi2Sr2Ca1Cu2O8+y,84.9
Hg1Ba2Ca1.73Pb0.17Cu2.86O8+z,133.0
Nd1.85Ce0.15Cu1O4,15.9
Sm1.85Ce0.15Cu1O4,13.5
Y1Ba2Cu3.96Fe0.04O8,59.0
Y1Ba2Cu3O7-d,90.8
Y1Ba2Cu3O7-d,89.1
Y1Ba2Cu3O7-d,87.5
Y1Ba2Cu3O7-d,88.6
Tl2Ba2Cu1O6+d,60.0
Tl1Sr2Ca1Cu2O7-d,65.0
Y1Ba2Cu3Oy,91.0
Y1Ba2Cu0.97Co0.03O7-d,90.7
Y1Ba2Cu0.94Co0.06O7-d,88.7
Y1Ba2Cu0.925Co0.075O7-d,81.2
Y1Ba2Cu0.91Co0.09O7-d,76.1
Y1Ba2Cu0.88Co0.12O7-d,66.3
Y1Ba2Cu0.94Co0.06O7-d,89.7
Y1Ba2Cu0.925Co0.075O7-d,86.8
Y1Ba2Cu0.91Co0.09O7-d,86.4
Y1Ba2Cu0.88Co0.12O7-d,77.1
Cu0.68C0.32Ba2Ca3Cu4O11+d,117.0
Y1Ba2Cu3O7-d,65.0
Y1Ba2Cu3O7-d,63.0
Bi1.8Pb0.4Sr2Ca2Cu3O10+d,104.0
Pr1.85Ce0.15Cu1O4-d,22.1
Nd1.85Ce0.15Cu1O4-d,24.2
Sm1.85Ce0.15Cu1O4-d,18.3
Eu1.85Ce0.15Cu1O4-d,10.0
Pb0.17Hg1.22Ba2Ca1.44Cu2.79Ox,133.6
Y1Ba2Cu3O6.95,86.0
Y1Ba2Cu3O6.7,70.0
Y1Ba2Cu3O6.96,90.0
Y0.9Ca0.1Ba1.9La0.1Cu3O6.96,82.0
Y0.8Ca0.2Ba1.8La0.2Cu3O6.96,78.0
Y0.7Ca0.3Ba1.7La0.3Cu3O6.96,78.0
Y0.6Ca0.4Ba1.6La0.4Cu3O6.96,78.0
Y1Ba2Cu3O6.91,90.0
Y1Ba2Cu3O7-d,85.0
Y1Ba2Cu3O7-d,78.0
Y1Ba2Cu3O7-d,60.0
Y1Ba2Cu3O7-d,52.0
Y1Ba2Cu3O6.54,50.0
Bi3.9Sr3.3Ca1.3Cu2.883Fe0.117Ox,78.5
Bi2.03Sr2Ca0.9Cu2Ox,85.5
Tl1Sr2Ca0.8Pr0.2Cu2O7,58.0
Tl1Sr2Ca0.6Pr0.4Cu2O7,70.0
Tl1Sr2Ca0.4Pr0.6Cu2O7,74.0
Tl1Sr2Ca0.2Pr0.8Cu2O7,38.0
Tl1Sr2Ca0.4Tb0.6Cu2O7,62.0
Y1Ba2Cu3O7-d,92.0
Bi2Sr1.9Ca1Cu2O8+y,88.75
Bi2Sr1.9Ca1Cu2O8+y,94.0
Er1Ba2Cu3O6.6,75.0
Dy1Ba2Cu3O6,90.0
Dy1Ba2Cu3O7,50.0
Nd1Ba2Cu3O6.94,90.0
Nd1Ba2Cu3O6.78,63.0
Y1Ba2Cu3O6.9,90.565
Y1Ba2Cu3O6.9,90.815
Y1Ba2Cu3O6.9,88.55
Y1Ba2Cu3O6.9,89.935
Hg1Ba2Ca2Cu3O8.27,135.0
Hg1Ba2Ca2Cu3O8.22,107.0
Hg1Ba2Ca2Cu3O8.18,94.0
Y1Ba2Cu3O6.95,92.8
Y1Ba2Cu3O6.88,91.5
Y1Ba2Cu3O6.62,34.0
Y2Ba4Cu7O14.97,93.1
Y1Ba2Cu3O6.95,92.0
Y1Ba2Cu3O6.77,80.0
Y1Ba2Cu2.97Zn0.03O6.95,81.0
Y1Ba2Cu2.97Zn0.03O6.77,67.0
Y1Ba2Cu2.97Zn0.03O6.75,58.0
Y1Ba2Cu2.97Zn0.03O6.7,50.0
Y1Ba2Cu2.97Zn0.03O6.68,41.0
Y1Ba2Cu2.94Zn0.06O6.95,65.0
Y1Ba2Cu2.94Zn0.06O6.77,44.0
Y1Ba2Cu2.94Zn0.06O6.75,37.0
Y1Ba2Cu2.94Zn0.06O6.7,23.0
Y1Ba2Cu2.94Zn0.06O6.68,20.0
Y1Ba2Cu2.91Zn0.09O6.95,56.0
Y1Ba2Cu2.91Zn0.09O6.77,30.0
Y1Ba2Cu2.91Zn0.09O6.75,23.0
Y1Ba2Cu2.91Zn0.09O6.7,20.0
Y1Ba2Cu2.91Zn0.09O6.68,10.0
Y1Ba2Cu2.91Zn0.09O6.65,10.0
Y1Ba2Cu2.91Zn0.09O6.6,6.0
Y1Ba2Cu2.79Zn0.21O6.95,20.0
Bi2Sr2Cu1Ox,5.0
Bi2Sr2Cu1Ox,8.0
Y1Ba2Cu3O6.94,92.6
Y1Ba2Cu3O6.94,92.9
Y0.6Pr0.4Ba2Cu3O6.88,47.0
Y0.6Pr0.4Ba1.8Sr0.2Cu3O6.85,47.0
Y0.6Pr0.4Ba1.6Sr0.4Cu3O6.87,44.0
Y0.6Pr0.4Ba1.4Sr0.6Cu3O6.83,45.0
Y0.6Pr0.4Ba1.2Sr0.8Cu3O6.89,52.0
Y0.6Pr0.4Ba1Sr1Cu3O6.89,53.0
Y0.6Pr0.4Ba0.8Sr1.2Cu3O6.89,49.0
Y0.6Pr0.4Ba0.6Sr1.4Cu3O6.89,49.0
Y0.6Pr0.4Ba0.4Sr1.6Cu3O7-d,50.0
Y0.6Pr0.4Ba0.2Sr1.8Cu3O7-d,44.0
Y1Ba2Cu3.976Zn0.024O8,63.0
Y1Ba2Cu3.95Zn0.05O8,47.0
Y1Ba2Cu3.928Zn0.072O8,31.0
Y1Ba2Cu3.9Zn0.1O8,12.0
La2Cu1O4.06,45.0
La2Cu1O4.065,45.0
La2Cu1O4.075,45.0
La2Cu1O4.08,45.0
La2Cu1O4.04,32.0
La2Cu1O4.05,32.0
La2Cu1O4.06,42.0
La2Cu1O4.08,42.0
La2Cu1O4.09,42.0
Y1Ba2Cu4O8,81.4
Bi2Sr2Ca1Cu2O8+d,87.0
Bi2Sr2Ca1Cu2O8+d,93.0
Bi2Sr2Ca1Cu2O8+d,87.5
Nd1Ba2Cu3O7-d,89.7
Nd1Ba2Cu2.99Ga0.01O7-y,81.2
Nb1Ba2Cu2.98Ga0.02O7-y,80.2
Nd1Ba2Cu2.97Ga0.03O7-y,70.5
Nb1Ba2Cu2.96Ga0.04O7-y,60.6
Nb1Ba2Cu2.95Ga0.05O7-y,60.0
Nb1Ba2Cu2.94Ga0.06O7-y,56.2
Nb1Ba2Cu2.93Ga0.07O7-y,52.0
Nb1Ba2Cu2.92Ga0.08O7-y,52.4
Nd1Ba2Cu2.91Ga0.09O7-y,50.1
Nb1Ba2Cu2.9Ga0.1O7-y,42.6
Bi1.8Pb0.3Sr2Ca2Cu3O10,109.0
Bi1.8Pb0.3Sr2Ca2Cu3O10,108.0
Bi1.8Pb0.3Sr2Ca2Cu3O10,107.0
Y1Ba2Cu2.94Ni0.06O7,79.0
Y1Ba2Cu2.88Ni0.12O7,70.0
Y1Ba2Cu2.82Ni0.18O7,68.0
Y1Ba2Cu2.94Ni0.06O7,62.0
Y1Ba2Cu2.88Ni0.12O7,43.0
Y1Ba2Cu3O7-d,91.0
Y1Ba2Cu2.895Fe0.105O7-d,70.0
Y1Ba2Cu2.805Fe0.195O7-d,51.0
La1.89Sr0.11Cu0.995Fe0.005O4,14.7
H0.1La1.89Sr0.11Cu0.995Fe0.005O4,14.0
H0.27La1.89Sr0.11Cu0.995Fe0.005O4,13.8
H0.4La1.89Sr0.11Cu0.995Fe0.005O4,13.5
H0.55La0.89Sr0.11Cu0.995Fe0.005O4,13.2
La1.8Sr0.2Cu0.995Fe0.005O4,25.5
H0.19La1.8Sr0.2Cu0.995Fe0.005O4,27.2
H0.55La1.8Sr0.2Cu0.995Fe0.005O4,26.0
Y1Sr2Cu2.7Mo0.3O7-d,33.2
Y0.9Pr0.1Sr2Cu2.7Mo0.3O7-d,33.1
Y0.8Pr0.2Sr2Cu2.7Mo0.3O7-d,31.6
Y0.7Pr0.3Sr2Cu2.7Mo0.3O7-d,29.7
Y0.6Pr0.4Sr2Cu2.7Mo0.3O7-d,25.9
Y0.5Pr0.5Sr2Cu2.7Mo0.3O7-d,22.2
Y0.4Pr0.6Sr2Cu2.7Mo0.3O7-d,17.3
Y0.3Pr0.7Sr2Cu2.7Mo0.3O7-d,12.2
Y1Ba2Cu3O6.98,83.3
Y0.9Ca0.1Ba2Cu3O6.96,81.5
Y0.8Ca0.2Ba2Cu3O6.9,73.9
Y0.7Ca0.3Ba2Cu3O6.87,88.7
Tl0.5Pb0.5Sr2Ca1Cu2Ox,77.7
Tl1Ba2Ca2Cu3Ox,111.7
Tl2Ba2Ca2Cu3Ox,123.6
Tl2Ba2Ca1Cu2Ox,103.1
Ca1.9Na0.1Cu1Cl2O2,26.0
Yb1Ba2Cu3O7,87.9
Tm1Ba2Cu3O7,90.4
Ho1Ba2Cu3O7,91.5
Dy1Ba2Cu3O7,91.7
Gd1Ba2Cu3O7,93.6
Sm1Ba2Cu3O7,93.1
Nd1Ba2Cu3O7,94.4
Tl1.75Ba2Cu1.2O5.98,26.0
Tl1.63Ba2Ca1.3Cu2O7.94,91.0
Tl1.62Ba2Ca2.3Cu3O9.92,113.0
Tl1.6Ba2Ca3.3Cu4O11.89,103.0
Tl1.89Ba2Cu1.11O6.18,49.0
Y1Ba2Cu3O6.93,93.2
Y1Ba2Cu3O6.93,93.5
La1.83Sr0.17Cu1O4,38.7
Y0.8Pr0.2Ba2Cu3O7-d,75.0
Y0.7Pr0.3Ba2Cu3O7-d,60.5
Y0.6Pr0.4Ba2Cu3O7-d,47.0
Y0.5Pr0.5Ba2Cu3O7-d,32.7
Y0.8Pr0.2Ba2Cu3O7-d,67.7
Y0.75Pr0.2Ca0.05Ba2Cu3O7-d,60.2
Y0.7Pr0.2Ca0.1Ba2Cu3O7-d,58.0
Y0.65Pr0.2Ca0.15Ba2Cu3O7-d,39.3
Y0.6Pr0.2Ca0.2Ba2Cu3O7-d,29.9
Y1.55Pr0.2Ca0.25Ba2Cu3O7-d,20.2
Y1Ba2Cu2.94Zn0.06O7-d,67.7
Y1Ba2Cu2.925Zn0.075O7-d,60.2
Y1Ba2Cu2.88Zn0.12O7-d,58.0
Y1Ba2Cu2.85Zn0.15O7-d,39.3
Y1Ba2Cu2.82Zn0.06O7-d,29.9
Y1Ba2Cu2.79Zn0.21O7-d,20.2
Y1Ba2Cu2.775Zn0.225O7-d,13.4
Y1Ba2Cu2.76Zn0.24O7-d,9.6
Y1Ba2Cu2.745Zn0.255O7-d,5.7
Y1Ba2Cu2.737Zn0.262O7-d,8.0
La1.8Sr0.2Ca1Cu2O6-d,26.5
La1.8Sr0.2Ca1Cu2O6-d,52.0
Hg1Ba2Ca2Cu3O8+d,133.5
Y1Ba2Cu3O6.97,91.3
Y1Ba2Cu3O6.962,92.1
Y1Ba2Cu3O6.955,91.8
Y1Ba2Cu3O6.906,92.4
Y1Ba2Cu3O6.828,88.0
Y1Ba2Cu3O6.773,71.2
Y1Ba2Cu3O6.702,69.0
Y1Ba2Cu3O6.666,60.5
Y1Ba2Cu3O6.602,59.4
Y1Ba2Cu3O6.556,58.5
Y1Ba2Cu3O6.546,59.4
Y1Ba2Cu3O6.516,58.7
Bi2Sr2Ca1Cu2O8+d,83.5
Lu0.9Ce0.05Ca0.05Ba2Cu3O7-d,81.0
Lu0.8Ce0.1Ca0.1Ba2Cu3O7-d,74.0
Lu0.8Ce0.15Ca0.05Ba2Cu3O7-d,63.0
Lu0.75Ce0.15Ca0.1Ba2Cu3O7-d,69.0
Lu0.7Ce0.15Ca0.15Ba2Cu3O7-d,58.0
Lu1Ba2Cu3O7-d,88.0
Lu0.93Pr0.07Ba2Cu3O7-d,85.0
Lu0.9Pr0.05Ca0.05Ba2Cu3O7-d,82.0
Lu0.9Pr0.1Ba2Cu3O7-d,83.0
Lu0.8Pr0.1Ca0.1Ba2Cu3O7-d,78.0
Lu0.8Pr0.2Ba2Cu3O7-d,79.0
Lu0.7Pr0.2Ca0.1Ba2Cu3O7-d,76.0
Lu0.7Pr0.3Ba2Cu3O7-d,70.0
Lu0.6Pr0.3Ca0.1Ba2Cu3O7-d,74.0
Lu0.6Pr0.4Ba2Cu3O7,54.0
Lu0.5Pr0.4Ca0.1Ba2Cu3O7-d,57.0
Lu0.5Pr0.5Ba2Cu3O7-d,37.0
Lu0.55Pr0.45Ba2Cu3O7-d,24.0
Er1Ba2Cu2.985Fe0.015O7-d,88.7
Er1Ba2Cu2.985Co0.015O7-d,89.0
Er1Ba2Cu2.985Ni0.015O7-d,89.8
Er1Ba2Cu2.985Ga0.015O7-d,89.5
Er1Ba2Cu3O7-d,92.5
Y0.9Tb0.1Ba2Cu3O7,91.0
Y0.68Tb0.32Ba2Cu3O7,91.0
Hg1Ba2Cu1O4.18,95.0
Hg1Ba2Cu1O4.08,53.0
Hg1Ba2Cu1O4.18,94.0
Hg1Ba2Cu1O4.23,30.0
Hg1Ba2Cu1O4.21,80.0
Dy1Ba2Cu3O7-d,76.3
Gd1Ba2Cu3O7-d,73.1
Eu1Ba2Cu3O7-d,68.0
La1.895Sr0.105Cu1O4,26.3
La1.89Sr0.11Cu1O4,24.5
La1.885Sr0.115Cu1O4,24.7
Bi2Sr2Ca1Cu2O8+y,92.0
Tl2Ba2Ca1Cu2O8,104.0
Y1Ba2Cu3F0.76O6,35.0
Y1Ba2Cu3F1.11O6,45.0
Y1Ba2Cu3F1.26O6,55.0
Y1Ba2Cu3F1.46O6,55.0
Y1Ba2Cu3.972Zn0.028O8,63.0
Y1Ba2Cu3.95Zn0.05O8,47.5
Y1Ba2Cu3.924Zn0.076O8,30.1
Y1Ba2Cu3.9Zn0.1O8,11.5
Y1Ba1.9La0.1Cu3O8,64.0
Y1Ba1.9La0.1Cu3.972Zn0.028O8,48.7
Y1Ba1.9La0.1Cu3.95Zn0.05O8,33.3
Y1Ba1.9La0.1Cu3.93Zn0.07O8,17.8
Y1Ba1.8La0.2Cu4O8,44.0
Y1Ba1.8La0.2Cu3.97Zn0.03O8,16.2
Hg1Ba2Cu1O4.07,45.0
Hg1Ba2Cu1O4.12,74.0
Hg1Ba2Cu1O4.19,95.0
Hg1Ba2Cu1O4.22,97.0
Hg1Ba2Cu1O4.27,91.0
Hg1Ba2Cu1O4.3,81.0
Hg1Ba2Cu1O4.31,78.0
Hg1Ba2Cu1O4.34,59.0
Hg1Ba2Cu1O4.36,56.0
Hg1Ba2Cu1O4.37,40.0
Hg1Ba2Cu1O4.39,26.0
Yb1Ba1.7Sr0.3Cu3O6.9,81.0
Yb0.95Pr0.05Ba1.7Sr0.3Cu3O6.91,81.0
Yb0.9Pr0.1Ba1.7Sr0.3Cu3O6.9,81.0
Yb0.85Pr0.15Ba1.7Sr0.3Cu3O6.91,80.0
Yb0.8Pr0.2Ba1.7Sr0.3Cu3O6.92,76.0
Yb0.75Pr0.25Ba1.7Sr0.3Cu3O6.92,71.0
Yb0.7Pr0.3Ba1.7Sr0.3Cu3O6.93,63.0
Yb0.65Pr0.35Ba1.7Sr0.3Cu3O6.95,55.0
Yb0.6Pr0.4Ba1.7Sr0.3Cu3O6.93,46.0
Yb0.55Pr0.45Ba1.7Sr0.3Cu3O6.88,41.0
Yb0.5Pr0.5Ba1.7Sr0.3Cu3O6.93,30.0
Yb0.45Pr0.55Ba1.7Sr0.3Cu3O6.91,15.0
Lu1Ba1.7Sr0.3Cu3O7-d,79.0
Lu0.9Pr0.1Ba1.7Sr0.3Cu3O6.95,79.0
Lu0.85Pr0.15Ba1.7Sr0.3Cu3O6.91,77.0
Lu0.8Pr0.2Ba1.7Sr0.3Cu3O6.93,75.0
Lu0.75Pr0.25Ba1.7Sr0.3Cu3O6.9,66.0
Lu0.7Pr0.3Ba1.7Sr0.3Cu3O6.89,61.0
Lu0.65Pr0.35Ba1.7Sr0.3Cu3O6.93,52.0
Lu0.6Pr0.4Ba1.7Sr0.3Cu3O6.91,47.0
Lu0.55Pr0.45Ba1.7Sr0.3Cu3O6.92,35.0
Lu0.5Pr0.5Ba1.7Sr0.3Cu3O6.92,20.0