composition,critical_temperature_tc
Ca0.92La0.08Fe8.6Pd4.2As18,13.5
Bi2Rh3.5S2,2.1
La1Pt1.97Ge2.03,0.83
La1Pt1.94Ge2.06,0.95
La1Pt1.9Ge2.1,1.67
La1Pt1.85Ge2.15,1.87
Rb0.8Fe1.7Se2,32.0
La1Fe1As1H0.42O0.58,20.3
La1Fe1As1H0.41O0.59,19.5
La1Fe1As1H0.4O0.6,23.9
Ba0.59K0.41Fe2As2,36.9
Ce1Bi3.7Pb0.3Te6,2.9
Ce1Bi3.6Pb0.4Te6,3.0
Ce1Bi3.5Pb0.5Te6,3.0
Ce1Bi3.4Pb0.6Te6,3.0
Ce1Bi3.3Pb0.7Te6,2.9
Ce1Bi3.2Pb0.8Te6,2.9
Ce1Bi3.1Pb0.9Te6,2.8
Ce1Bi3Pb1Te6,2.7
La3Ru4Sn13,3.75
La3Ru4Sn13,1.55
U0.85Mo0.15,2.1
U0.94Mo0.06,0.78
U0.95Pd0.05,0.69
U0.95Pt0.05,0.69
Ta5Ge1B2,3.8
La3Co4Sn13,2.2
La3Co4Sn12.35In0.65,5.1
La3Co4Sn11.7In1.3,4.6
Li0.15Sr2Cu1Br2O2,8.0
Sr2Ru1O4,1.37
La1Fe1P1O1,5.8
La1Fe1P1F0.03O0.97,7.8
La1Fe1P1F0.05O0.95,8.0
La1Fe1P1F0.08O0.92,7.8
La1Fe1P1F0.1O0.9,6.2
La1Fe1As1F0.05O0.95,14.5
La1Fe1As1F0.08O0.92,22.8
La1Fe1As1F0.1O0.9,25.2
La1Fe1As1F0.11O0.89,22.9
La1Fe1As1F0.14O0.86,12.9
Ba1Pd0.3Si1.7,2.9
Ba1Pt0.3Si1.7,2.6
Ba1Cu0.3Si1.7,3.0
Ba1Ag0.3Si1.7,3.2
Ba1Au0.3Si1.7,3.2
Ba1Ag0.2Si1.8,3.2
Ba1Cu0.2Si1.8,3.02
Ba1Pd0.2Si1.8,2.91
Ba1Ag0.4Si1.6,2.79
Ba1Cu0.4Si1.6,2.11
Ba1Pd0.4Si1.6,1.11
Ba1Ag0.5Si1.5,1.21
Ba1Cu0.5Si1.5,2.53
Ba1Pd0.5Si1.5,0.6
Ba1Cu0.6Si1.4,1.74
Eu0.7Na0.3Fe2As2,32.0
Mg1B1.98C0.02,37.0
Mg1B1.968C0.032,37.0
Mg1B1.938C0.062,37.0
Sr2V1Fe1As1O3,24.0
Sr2V0.9Mg0.1Fe1As1O3,30.0
K1Ni2S2,0.46
La1Fe1As0.6P0.4F0.1O0.9,27.0
La1Fe1As0.2P0.8F0.1O0.9,8.8
La1Fe1P1F0.1O0.9,5.4
La1Fe1As0.6P0.4F0.05O0.95,19.0
La1Fe1As0.4P0.6F0.05O0.95,24.0
La1Fe1P1F0.05O0.95,6.7
La1Fe1P1O1,5.42
La1Fe1As0.1P0.9O1,5.96
La1Fe1As0.15P0.85O1,11.67
La1Fe1As0.2P0.8O1,11.42
La1Fe1As0.25P0.75O1,7.52
La1Fe1As0.7P0.3O1,7.83
La1Fe1As0.8P0.2O1,2.31
La1Fe1P1F0.05O0.95,6.93
La1Fe1As0.2P0.8F0.05O0.95,10.87
La1Fe1As0.4P0.6F0.05O0.95,24.24
La1Fe1As0.5P0.5F0.05O0.95,21.2
La1Fe1As0.6P0.4F0.05O0.95,19.08
La1Fe1As0.7P0.3F0.05O0.95,15.75
La1Fe1As0.75P0.25F0.05O0.95,22.38
La1Fe1As0.8P0.2F0.05O0.95,25.61
La1Fe1As0.9P0.1F0.05O0.95,23.6
La1Fe1As1F0.05O0.95,27.84
La1Fe1As0.4P0.6F0.1O0.9,21.14
La1Fe0.9997Mn0.00025As1F0.11O0.89,22.8
La1Fe0.999Mn0.001As1F0.11O0.89,9.84
La0.8Y0.2Fe1As1F0.11O0.89,30.3
La0.8Y0.2Fe0.997Mn0.003As1F0.11O0.89,29.3
La0.8Y0.2Fe0.995Mn0.005As1F0.11O0.89,25.7
La0.8Y0.2Fe0.99Mn0.01As1F0.11O0.89,25.3
Sm1Fe0.965Mn0.035As1F0.11O0.89,31.3
Sr0.1Bi2Se3,2.87
Sr0.062Bi2Se3,2.48
Sr0.065Bi2Se3,2.6
Th1Pt3B1,0.75
Bi2Pd1,5.07
Li0.84H1Fe1.14Se1O1,42.0
Sr0.3M1Fe2Se2,36.3
Ce3Pt1In11,0.32
Ba1Fe1.935Ni0.065As2,11.3
Ba1Fe1.925Ni0.075As2,13.7
Ba1Fe1.915Ni0.085As2,18.2
Ba1Fe1.908Ni0.092As2,19.3
Ba1Fe1.904Ni0.096As2,19.9
Ba1Fe1.9Ni0.1As2,20.3
Ba1Fe1.892Ni0.108As2,20.3
Ba1Fe1.88Ni0.12As2,18.6
Ba1Fe1.85Ni0.15As2,14.5
Ba1Fe1.82Ni0.18As2,10.9
Ba1Fe1.8Ni0.2As2,6.4
Ba1Fe1.78Ni0.22As2,3.4
Ca0.81La0.19Fe1As2,34.0
Ba6Nb10O30,1.65
Ba5Sr1Nb10O30,0.96
Ba4Sr2Nb10O30,0.98
Ba6Nb10O30,1.6
Ba0.818Na0.182Fe2As2,6.4
Ba0.779Na0.221Fe2As2,8.0
Ba0.698Na0.302Fe2As2,18.0
Ba0.68Na0.32Fe2As2,23.8
Ba0.64Na0.36Fe2As2,31.0
Ba0.6Na0.4Fe2As2,34.0
Ba0.84K0.16Fe2As2,5.54
Ba0.737K0.263Fe2As2,24.0
Ba0.65K0.35Fe2As2,38.0
Au2Pb1,1.2
Au2Bi1,1.7
Ca0.941Pr0.059Fe2As2,28.9
Ca0.875Pr0.125Fe2As2,49.0
Ca0.891La0.109Fe2As2,45.4
Ca0.857La0.143Fe2As2,44.0
Pb1Ta1Se2,3.8
Pb1Ta1Se2,3.9
Ce0.987Yb0.013Co1In5,2.13
Ce0.916Yb0.084Co1In5,1.84
Ce0.837Yb0.163Co1In5,1.4
Ce1Co1In4.98Cd0.02,2.14
Ce1Co1In4.96Cd0.04,2.05
Ce1Co1In4.945Cd0.055,1.92
Mo5P0.9B2.1,8.9
Mo5P1B2,8.7
Mo5P1.1B1.9,9.2
Mo3P1,5.5
Zr1B12,6.09
Zr0.993Lu0.007B12,5.97
Zr0.985Lu0.015B12,5.67
Zr0.984Lu0.016B12,5.65
Zr0.935Lu0.065B12,4.77
Zr0.926Lu0.074B12,4.78
Bi2Te1,8.6
Pr1Pt4Ge12,7.85
Pr1Pt4Ge11.5Sb0.5,4.43
Pr1Pt4Ge11Sb1,2.68
Pr1Pt4Ge10.5Sb1.5,1.71
Pr1Pt4Ge10Sb2,1.27
Pr1Pt4Ge9.5Sb2.5,0.69
Pr1Pt4Ge9Sb3,1.4
Pr1Pt4Ge8Sb4,1.4
Ba0.85K0.15Fe2As2,12.0
Bi2.13F0.17S2O0.83,3.2
Bi2.14F0.27S2O0.73,2.7
Bi2.14F0.24S2O0.76,3.5
Sr1Pt1As1,2.45
Sr3Rh8B6,3.4
Ca3Rh8B2,4.0
Y3Os8B6,5.8
Pd0.02Ir1Te2,2.15
Pd0.03Ir1Te2,2.68
Pd0.03Ir0.97Te2,2.7
Pd0.04Ir0.96Te2,2.99
Y1Fe2Ge2,1.83
Cs0.96Bi4Te6,4.4
Cs1Bi4.1Te5.9,4.4
Sn0.5In0.5Te1,4.4
Ge3Nb5,0.46
Ge3Nb5,0.45
W4.8Ta0.2Si1B2,6.5
La1.9Sr0.1Cu1O4,22.9
La1.855Sr0.145Cu1O4,32.2
La1Fe1P1F0.1O0.9,62.0
La0.8Y0.2Fe1As1O0.7,34.0
La1Fe1As1H0.58O0.58,32.0
La1Fe1As0.4P0.6F0.1O0.9,21.4
La1Fe1As0.8P0.2F0.1O0.9,26.0
Pr1Fe1P1F0.1O0.9,2.34
Pr1Fe1As0.2P0.8F0.1O0.9,8.71
Pr1Fe1As0.4P0.6F0.1O0.9,17.4
Pr1Fe1As0.6P0.4F0.1O0.9,23.4
Pr1Fe1As0.8P0.2F0.1O0.9,29.2
Pr1Fe1As0.9P0.1F0.1O0.9,35.2
Pr1Fe1As1F0.1O0.9,44.0
Nd1Fe1P1F0.1O0.9,2.9
Nd1Fe1As0.2P0.8F0.1O0.9,6.98
Nd1Fe1As0.4P0.6F0.1O0.9,22.6
Nd1Fe1As0.5P0.5F0.1O0.9,25.2
Nd1Fe1As0.6P0.4F0.1O0.9,28.0
Nd1Fe1As0.7P0.3F0.1O0.9,29.5
Nd1Fe1As0.8P0.2F0.1O0.9,34.1
Nd1Fe1As1F0.1O0.9,50.1
Li1M1Fe2Se2,38.0
Sc1Ir1P1,3.46
La1Rh1Si3,2.3
Sr1Pd2Sb2,1.9
Sr1Pd2Sb2,0.6
Sn0.85Ag0.15Te1,2.15
Sn0.8Ag0.2Te1,2.29
Sn0.75Ag0.25Te1,2.2
Sn0.67Ag0.33Te1,1.95
Sn0.6Ag0.4Te1,1.95
Eu1Rb1Fe4As4,36.0
Eu1Cs1Fe4As4,35.0
Nd1Bi1S2F0.29O0.71,5.2
Co1U6,2.36
Pr1V2Al20,0.05
Pr1V2Al20,0.039
Pr1Ti2Al20,0.19
Y1Pd2P2,0.96
La1Pd2P2,0.75
As1Cr1,1.506
Fe1Se1,65.0
Fe1Se1,60.0
Fe1Se1,55.0
Fe1Se1,40.0
Pr1Bi1S2F0.5O0.5,3.5
Nd1Bi1S2F0.5O0.5,4.5
La1Fe1P1F0.1O0.9,5.25
La1Fe1P0.6As0.4F0.1O0.9,20.86
La1Fe1P0.6As0.6F0.1O0.9,26.9
La1Fe1P0.6As0.8F0.1O0.9,25.3
La1Fe1As1F0.1O0.9,24.3
Hg0.3La0.7Ba2Ca3Cu3.6Ag0.4O10-z,121.6
Hg0.3La0.7Ba2Ca3Cu3.2Ag0.8O10-z,126.8
Hg0.3La0.7Ba2Ca3Cu2.8Ag1.2O10-z,126.9
Hg0.3La0.7Ba2Ca3Cu2Ag2O10-z,106.7
Bi3.925Co0.075S3O4,4.39
Bi3.9Co0.1S3O4,5.23
Bi3.875Co0.125S3O4,4.26
Bi3.85Co0.15S3O4,3.955
Y1Fe2Ge2,0.6
Y1Fe2Ge2,0.9
Y1Fe2Ge2,1.0
Y1Fe2Ge2,1.2
Ta1Ir1Si1,0.5
Nb1Pt1Si1,1.24
Sr3Rh4Sn13,4.15
Sr3Ir4Sn13,4.95
Ce1Co1In5,1.95
Ce0.98Yb0.02Co1In5,1.89
Ce0.95Yb0.05Co1In5,1.73
Ce0.9Yb0.1Co1In5,1.47
Ce0.85Yb0.15Co1In5,1.19
Ce0.8Yb0.2Co1In5,0.92
Sn0.8In0.2Te1,2.97
Sn0.7In0.3Te1,3.68
Sn0.6In0.4Te1,4.27
Sn0.55In0.45Te1,4.46
Sn0.7In0.3Te1,3.51
Pb1Ta1Se2,3.7
La1Fe1As1F0.11O0.89,29.0
La1Fe0.99975Mn0.00025As1F0.11O0.89,25.0
La1Fe0.99925Mn0.00075As1F0.11O0.89,16.3
La1Fe0.999Mn0.001As1F0.11O0.89,11.5
Au2Pb1,1.3
K2Cr3As3,5.8
Y0.95La0.05Fe1As1H0.15O1-z,50.0
Bi2Se3,2.42
Bi2Se3,6.86
Bi2Se3,7.01
Y1Fe2Ge2,1.4
Sb2Te3,4.3
Sb2Te3,6.2
Sb2Te3,6.97
Sb2Te3,7.24
Cs2Cr3As3,2.2
Pb1Ta1Se2,3.38
Nd1Bi0.99Pb0.01S2F0.3O0.7,4.85
Nd1Bi0.98Pb0.02S2F0.3O0.7,5.17
Nd1Bi0.97Pb0.03S2F0.3O0.7,5.37
Nd1Bi0.96Pb0.04S2F0.3O0.7,5.35
Nd1Bi0.94Pb0.06S2F0.3O0.7,5.56
Nd1Bi0.9Pb0.1S2F0.3O0.7,4.83
Bi3Ni0.95Fe0.05,4.08
Bi3Ni0.9Fe0.1,4.06
Nb1,8.8
M0.37Cs0.268Fe1Se1,33.5
Rb0.75Fe1.6Se2,32.0
Rb0.75Fe1.6Se1.75S0.25,24.0
Rb0.75Fe1.6Se1.5S0.5,28.0
Rb0.75Fe1.6Se1S1,22.0
Ca1K1Fe4As4,33.1
Ca1Rb1Fe4As4,35.0
Ca1Cs1Fe4As4,31.6
Sr1Rb1Fe4As4,35.1
Sr1Cs1Fe4As4,36.8
Ba1Cs1Fe4As4,26.0
Ti1Ru1P1,1.3
Zr1Ru1P1,3.89
Zr1Ru1P1,12.93
Hf1Ru1P1,10.8
Zr1Os1P1,7.4
Zr1Ru1As1,3.2
Zr1Hf1As1,3.2
Bi2F0.6S2O0.4,5.1
Bi2F0.2S2O0.8,3.0
Cu1Cr0.95Fe0.05O2,117.5
Cu1Cr0.9Fe0.1O2,98.0
Cu1Cr1O2,132.0
Nd1F0.5Bi0.84S2O0.5,4.5
Co7Y9,3.0
Ba1Pt2As2,1.52
Nd1F0.3Bi1S2O0.7,4.7
Nd1F0.5Bi1S2O0.5,4.4
Pb1.16Ti2Se5.16,3.25
Pb1.044Sn0.116Ti2Se5.16,4.19
Pb0.928Sn0.232Ti2Se5.16,4.53
Pb0.812Sn0.348Ti2Se5.16,4.02
Pb0.696Sn0.464Ti2Se5.16,3.82
Pb0.58Sn0.58Ti2Se5.16,3.6
Ce1Co0.95Ni0.05In5,1.86
Ce1Co0.925Ni0.075In5,1.69
Ce1Co0.875Ni0.125In5,1.41
Ce1Co0.8Ni0.2In5,0.88
Sn0.8Ag0.2Te1,2.1
Y6Nb4Al43,0.86
Y6Mo4Al43,0.75
Y6Ta4Al43,0.68
Sn0.8Ag0.2Te1,1.2
La1Rh1Si3,2.32
Ta1Pt1Si1,3.54
Zr2Co0.9Ni0.1,5.94
Zr2Co0.8Ni0.2,5.83
Zr2Co0.7Ni0.3,5.14
Bi3.925Co0.075S3O4,4.365
Bi3.9Co0.1S3O4,5.2
Bi3.875Co0.125S3O4,4.25
Bi3.85Co0.15S3O4,3.97
Zr1V1Ge1,6.0
Ba1Fe2As1.34P0.66,25.0
Na0.5M1Fe1Se1,31.0
Na0.4M1Fe1Se0.5Te0.5,22.0
Li0.5M1Fe1Se0.5Te0.5,26.0
Ca0.4M1Fe1Se0.5Te0.5,17.0
Pd0.2Ho1Te3,2.0
Pd0.4Ho1Te3,2.8
Rb1Eu1Fe4As4,36.5
Ba1Pt4Ge12,5.3
Sr1Pt3P1,8.35
Sr1Pt2.7Pd0.3P1,7.54
Sr1Pt2.4Pd0.6P1,6.57
Sr1Pt2.1Pd0.9P1,5.78
Sr1Pt1.8Pd1.2P1,4.82
Ba0.833K0.167Fe2As2,7.0
Ba0.823K0.177Fe2As2,10.0
Ba0.805K0.195Fe2As2,15.0
Ba0.677K0.323Fe2As2,37.0
Ba0.83K0.17Fe2As2,8.0
Ba0.812K0.188Fe2As2,13.0
Ba0.797K0.203Fe2As2,17.0
Ba0.663K0.337Fe2As2,38.0
Ba0.816K0.184Fe2As2,12.0
Ba0.788K0.212Fe2As2,19.0
Bi2Pd1,4.84
Cs1Fe2As2,2.11
Ca3Rh4Sn13,4.71
Ca2.8Co0.2Rh4Sn13,7.73
Ca2.5Co0.5Rh4Sn13,6.41
Na1Fe0.9875Co0.0125As1,13.9
Na1Fe0.985Co0.015As1,12.6
Na1Fe0.9825Co0.0175As1,15.8
Na1Fe0.981Co0.019As1,19.3
Na1Fe0.977Co0.023As1,15.7
Ni1Sm1,1.6
Gd1Sm1Ni2,4.5
Hf1Re6,6.2
Y1Pt1Bi1,0.97
Nb0.25Bi2Se3,3.275
Nb0.28Bi2Se3,3.35
Ta1Se1.7Te0.3,0.785
Ta1Se1.6Te0.4,1.2
Ta1Se1.5Te0.5,1.2
Ta1Se1.4Te0.6,2.05
Ta1Se1.2Te0.8,1.585
Ta1Se1Te1,1.445
Ta1Se0.8Te1.2,1.165
Ta1Se0.7Te1.3,0.27
La1Fe0.99975Mn0.00025As1F0.11O0.89,22.6
La1Fe0.99925Mn0.00075As1F0.11O0.89,14.4
La1Fe0.999Mn0.001As1F0.11O0.89,9.67
La0.8Y0.2Fe0.997Mn0.003As1F0.11O0.89,28.5
La0.8Y0.2Fe0.992Mn0.008As1F0.11O0.89,22.7
La0.8Y0.2Fe0.98Mn0.02As1F0.11O0.89,14.1
La0.8Y0.2Fe0.975Mn0.025As1F0.11O0.89,10.1
La0.995Y0.005Fe0.995Mn0.005As1F0.11O0.89,2.89
La0.99Y0.01Fe0.995Mn0.005As1F0.11O0.89,7.5
La0.95Y0.05Fe0.995Mn0.005As1F0.11O0.89,18.6
La0.9Y0.1Fe0.995Mn0.005As1F0.11O0.89,24.1
La0.8Y0.2Fe0.995Mn0.005As1F0.11O0.89,26.6
La0.77Y0.23Fe0.995Mn0.005As1F0.11O0.89,27.9
Re6Zr1,6.7
Sr0.15Bi2Se3,3.05
Sr0.15Bi2Se3,3.06
M1Na0.3Fe1Se0.5Te0.5,21.0
M1Na0.3Fe1Se0.5Te0.5,27.0
Ir0.95Pt0.05Te2,2.92
Ir0.95Pt0.05Te2,2.84
Ir0.95Pt0.05Te2,2.29
Y1Sr2Mo0.25Cu2.75O7.54,78.0
Ba1Pt2As2,1.6
Ba1Pt2As2,2.13
Ba1Pt2As2,3.8
La1Pt4Ge12,8.29
Ba1Pt4Ge12,4.98
Na0.1M0.3Fe1Se1,32.5
Na1M0.3Fe1Se1,46.0
Na0.7M0.3Fe1Se1,45.0
Li0.1M0.3Fe1Se1,39.5
Cs2Cr3As3,1.85
Ce1Bi1S2O1,1.6
Ce1Bi1S2O1,3.0
Ti1Ir1Si1,1.42
Zr1Ir1Si1,1.85
Hf1Ir1Si1,3.43
Ba0.67Pt3B2,5.65
Fe1Se1,80.0
Ge0.989Rh1,4.1
Ge1.003Rh1,3.45
Ge4Rh1,2.56
Th1Co1Si1,2.95
Ba0.832K0.168Fe2As2,7.74
Ba0.807K0.193Fe2As2,17.2
Ba0.765K0.235Fe2As2,20.5
Ba0.66K0.34Fe2As2,37.5
K1Fe2As2,3.9
Hf1Re6,5.94
Hf1Te5,4.8
La1Pt4Ge12,8.0
Ca1K1Fe4As4,35.0
Bi3.925Mn0.075S3O4,4.67
Bi3.9Mn0.1S3O4,4.75
Bi3.875Mn0.125S3O4,4.77
Bi3.85Mn0.15S3O4,4.02
Bi3.875Co0.125S3O4,4.79
Bi3.875Ni0.125S3O4,4.87
La1Pt4Ge12,8.54
La0.95Ce0.05Pt4Ge12,5.73
La0.9Ce0.1Pt4Ge12,5.61
La0.85Ce0.15Pt4Ge12,2.17
La0.8Ce0.2Pt4Ge12,1.57
La0.8Th0.2Pt4Ge12,8.06
La0.6Th0.4Pt4Ge12,7.55
La0.4Th0.6Pt4Ge12,6.77
La0.2Th0.8Pt4Ge12,5.67
Th1Pt4Ge12,4.56
La0.9Ce0.1Ru3Si2,5.12
La0.8Ce0.2Ru3Si2,4.62
La0.6Ce0.4Ru3Si2,3.35
La0.4Ce0.6Ru3Si2,2.47
La0.95Lu0.05Ru3Si2,6.19
La0.92Y0.08Ru3Si2,6.13
La1Ru3Si2,6.89
La1Ru2.94Cr0.06Si2,6.23
La1Ru1Cr0.21Si2,4.88
La1Ru2.919Ni0.081Si2,5.42
La1Ru2.865Ni0.135Si2,5.02
La1Ru2.814Ni0.186Si2,4.8
La1Ru2.94Cu0.06Si2,6.44
La1Ru2.88Cu0.12Si2,5.93
La1Ru2.97Fe0.03Si2,6.16
La1Ru2.94Fe0.06Si2,4.51
La1Ru2.925Fe0.075Si2,3.0
La1Ru2.9175Fe0.0825Si2,2.49
Li1Fe1As1,16.2
Li1Fe0.993V0.007As1,12.2
Li1Fe0.986V0.014As1,5.7
Li1Fe0.981V0.019As1,3.0
Ba8Si46,7.31
U1Co1Ge1,0.76
Cu0.05Ir1Te2,2.85
Cu0.1Ir1Te2,2.6
Cu0.05Ir1Te1.8Se0.2,2.8
Cu0.2Ir1Te1.8Se0.2,2.21
Cu0.05Ir1Te1.7Se0.3,2.45
Cu0.125Ir1Te1.7Se0.3,2.71
Cu0.2Ir1Te1.7Se0.3,1.68
Cu0.1Ir1Te1.5Se0.5,1.95
Cu0.15Ir1Te1.5Se0.5,2.35
Cu0.2Ir1Te1.5Se0.5,2.3
Pr1Pt4Ge12,7.77
Pr0.98Ce0.02Pt4Ge12,6.63
Pr0.96Ce0.04Pt4Ge12,5.59
Pr0.915Ce0.085Pt4Ge12,3.62
Pr0.9Ce0.1Pt4Ge12,3.03
Ti0.98Ta0.02Se2,1.02
Ti0.85Ta0.15Se2,2.29
Ti0.8Ta0.2Se2,2.29
Ti0.6Ta0.4Se2,1.22
Hf1Rh1Si1,2.18
Hf1Rh0.9Pd0.1Si1,1.95
Hf1Rh0.8Pd0.2Si1,1.85
Hf1Rh0.7Pd0.3Si1,1.75
Ba8Al5Si41,6.8
Ba7.9Eu0.1Al5Si41,5.9
Ba7.8Eu0.2Al5Si41,5.2
Ba7.7Eu0.3Al5Si41,4.5
Nb5Ge3C0.3,15.3
D0.92Pd1,6.8
D0.91Pd1,6.4
Eu0.5La0.5F1Bi1S2,1.7
Eu0.5La0.5F1Bi1S1.8Se0.2,1.6
Eu0.5La0.5F1Bi1S1.6Se0.4,3.0
Eu0.5La0.5F1Bi1S1.4Se0.6,3.5
Eu0.5La0.5F1Bi1S1.2Se0.8,5.0
Eu0.5La0.5F1Bi1S1Se1,3.69
Nb5Re24,8.7
Ba1Pt4Ge12,4.9
Ba1Pt3.5Au0.5Ge12,5.3
Ba1Pt3Au1Ge12,6.95
Cs1Fe2As2,1.84
La0.5Bi1S2F0.5O0.5,10.0
Ba0.77K0.23Fe2As2,24.4
Ba0.58K0.42Fe2As2,37.4
Ba0.31K0.69Fe2As2,17.8
Ba0.78K0.22Fe2As2,24.8
Ba0.66K0.34Fe2As2,38.9
Ba0.61K0.39Fe2As2,38.6
Ba0.47K0.53Fe2As2,34.3
Ba0.45K0.55Fe2As2,33.1
Ba0.35K0.65Fe2As2,24.8
Ba0.2K0.8Fe2As2,14.5
Ba0.18K0.82Fe2As2,10.0
Ba0.1K0.9Fe2As2,7.39
Ba0.08K0.92Fe2As2,6.37
K1Fe2As2,3.94
Li0.45M0.3Fe2Se2,41.2
Li0.45M0.3Fe2Se1.8Te0.2,42.3
Li0.45M0.3Fe2Se1.6Te0.4,41.5
Li0.45M0.3Fe2Se1.4Te0.6,38.8
Li0.45M0.3Fe2Se1.2Te0.8,36.6
Li0.45M0.3Fe2Se1Te1,21.7
Li0.45M0.3Fe2Se0.8Te1.2,16.5
Li0.45M0.3Fe2Se0.6Te1.4,8.1
Na0.45M0.3Fe2Se2,45.6
Na0.45M0.3Fe2Se1.8Te0.2,44.2
Na0.45M0.3Fe2Se1.6Te0.4,43.2
Na0.45M0.3Fe2Se1.4Te0.6,42.5
Na0.45M0.3Fe2Se1.2Te0.8,39.6
Na0.45M0.3Fe2Se1Te1,23.1
Na0.45M0.3Fe2Se0.8Te1.2,17.4
Na0.45M0.3Fe2Se0.6Te1.4,9.5
Sr1Pt3P0.8Si0.2,7.8
Sr1Pt3P0.6Si0.4,7.5
Sr1Pt3P0.4Si0.6,7.0
Nb0.18Re0.82,8.5
Bi2Pd1,4.93
Sr0.065Bi2Se3,3.0
Sr0.065Bi2Se3,7.78
Sr0.065Bi2Se3,7.07
Re6Zr1,6.72
Re27Zr5,6.53
Re24Zr5,5.0
Mo3Sb7,2.37
Mo3Sb7,2.36
K2Cr3As3,6.2
Bi1La1,4.1
Bi1La1,6.12
Bi1La1,7.2
Bi1,3.9
Ir1Te2,2.5
Na1Fe0.996Cu0.004As1,10.14
Na1Fe0.986Cu0.014As1,12.25
Na1Fe0.982Cu0.018As1,12.6
Na1Fe0.978Cu0.022As1,11.6
Na1Fe0.975Cu0.025As1,11.3
Na1Fe0.968Cu0.032As1,10.8
Ba1Fe1.915Ni0.085As2,18.0
Ge1Sb2Te4,8.1
U0.5Th0.5Os3B2,4.14
Re24Ti5,5.8
Eu0.85La0.15Fe1As2,9.3
Eu0.9La0.1Fe1As2,6.0
La1Ru2As2,7.0
Lu1Pd1Bi1,1.85
Sr0.1Bi2Se3,2.84
Cu0.3Bi2.1Se3,3.38
Sr0.058Bi2Se3,2.06
Sr0.065Bi2Se3,2.47
K1Ca2Fe4As4F2,32.8
As1Sn1,3.8
Sn1As0.99Se0.01,3.8
Sn1As0.97Se0.03,4.0
Sn1As0.95Se0.05,4.3
Sn1As0.93Se0.07,4.3
Sn1As0.9Se0.1,4.5
Sn1As0.87Se0.13,4.4
Tl0.6Bi2Te3,2.35
Ti0.95Ta0.05Se2,1.75
Ti0.9Ta0.1Se2,2.23
Ti0.8Ta0.2Se2,2.28
Ti0.85Ta0.15Se2,2.3
Cu0.05Ti1Se2,1.52
Cu0.08Ti1Se2,4.18
Pd0.12Ti1Se2,2.18
Bi4S3O4,4.41
Bi3.99Ag0.01S3O4,4.31
Bi3.97Ag0.03S3O4,4.2
Bi3.95Ag0.05S3O4,3.52
Bi3.93Ag0.07S3O4,2.1
Bi3.9Ag0.1S3O4,1.99
Sr1Rh1Ge3,0.71
Sr1Ir1Ge3,0.53
Sr1Ni1Ge3,0.46
Sr1Pd1Ge3,1.38
Sr1Pt1Ge3,0.84
Ca0.82Ce0.18Fe1As2,13.1
Ca0.76Ce0.24Fe1As2,22.0
Ca0.8Ce0.2Fe0.975Co0.025As2,34.5
Ba8Si42Al4,5.7
Eu0.5Ce0.5Bi1S2F1,2.2
Be13La1,0.53
La1Os2Zn20,0.07
Pr1Os2Zn20,0.06
Sr1Ni2P2,1.41
Sr0.8Ba0.2Ni2P2,2.87
Sr0.6Ba0.4Ni2P2,2.84
Sr0.5Ba0.5Ni2P2,2.76
Sr0.3Ba0.7Ni2P2,2.55
Sr0.15Ba0.85Ni2P2,2.53
Ba1Ni2P2,2.53
Cs2Cr3As3,2.1
Ag1Sn0.9Bi0.1Se2,5.2
Ag1Sn0.8Bi0.2Se2,5.1
Ag1Sn0.7Bi0.3Se2,4.0
Ba1Pd2As2,3.85
Ce1Au2Si2,2.24
Ir1Sn4,3.7
Ge4Rh1,2.5
Nb2Ge1C1,10.0
Th1Si1.95Co0.05,2.38
Th1Si1.9Co0.1,2.18
Th1Si1.5Co0.5,2.0
Th1Si1.075Co0.925,2.7
Th1Si1Co1,2.84
Th1Rh0.96Si1.04,6.45
Th1Ni1Si1,2.0
Th1Pt1Si1,2.98
Te2W1,7.0
Te2W1,6.5
Mo1Te2,0.175
Mo1Te2,6.1
Mo1Te2,8.1
Ba1Fe2S3,17.0
La1Ni1C2,3.5
B3Ru7,3.3
Ba0.85Na0.15Fe2As2,1.4
Ba0.8Na0.2Fe2As2,15.2
Ba0.7Na0.3Fe2As2,25.8
Ba0.6Na0.4Fe2As2,34.2
Ba0.5Na0.5Fe2As2,33.2
Ba0.3Na0.7Fe2As2,24.0
Ba0.2Na0.8Fe2As2,18.6
Na1Fe1As1,9.6
Na1Fe0.994Cu0.006As1,10.2
Na1Fe0.981Cu0.019As1,11.5
Na1Fe0.963Cu0.037As1,2.6
Na1Fe0.976Cu0.024As1,11.1
Lu5Rh6Sn18,4.0
Te5Zr1,4.0
Te5Zr1,6.0
Bi1Te1Cl1,6.93
Bi1Te1Cl1,4.52
Mo3Sb6.975Te0.025,2.05
Mo2.91Ru0.09Sb7,2.15
Zr0.96V0.04B2,8.33
Hf0.97V0.03B2,7.31
Ca8.5La1.5Pt3Fe10As18,34.0
Mo1Te2,0.1
Mo1Te1.94Se0.06,0.46
Mo1Te1.9Se0.1,0.49
Mo1Te1.8Se0.2,1.12
Mo1Te1.7Se0.3,1.91
Mo1Te1.6Se0.4,2.14
Ca1K1Fe4As4,35.8
U1Co1Ge1,0.53
Mo3Sb7,2.3
Mo3Sb7,6.0
Re6Zr1,6.75
Ir3La7,2.25
Ca1Fe1.94Co0.06As2,15.1
Ca1Fe1.93Co0.07As2,17.4
Ca1Fe1.926Co0.074As2,16.9
Ca1Fe1.902Co0.098As2,15.8
Ca0.73La0.27Fe1As2,25.05
Lu1Pd1Bi1,1.7
Ba0.77K0.23Fe2As2,23.4
Ba0.75K0.25Fe2As2,27.5
Ba0.72K0.28Fe2As2,31.8
Ba0.6K0.4Fe2As2,36.3
Eu0.5La0.5F1Bi1S2,2.2
Pr1Pt4Ge12,8.13
Pr0.95Eu0.05Pt4Ge12,7.78
Pr0.9Eu0.1Pt4Ge12,7.62
Pr0.85Eu0.15Pt4Ge12,7.28
Pr0.8Eu0.2Pt4Ge12,6.54
Pr0.7Eu0.3Pt4Ge12,5.28
Pr0.62Eu0.38Pt4Ge12,5.12
Pr0.55Eu0.45Pt4Ge12,2.72
Pr0.5Eu0.5Pt4Ge12,2.12
Ca1K1Fe4As4,34.3
Cu0.3Zr1Te2,10.0
Cu0.3Zr1Te1.2,9.07
Ta1Ir2Ge2,3.9
Ba1Fe2As1.34P0.66,24.6
Ba1Fe2As1.34P0.66,23.2
Li0.25Sr2Cu1I2O2,4.5
La1Ni1C2,2.92
La0.995Ce0.005Ni1C2,2.41
La0.99Ce0.01Ni1C2,2.0
La0.985Ce0.015Ni1C2,1.4
La0.98Ce0.02Ni1C2,0.1
Ca10Pt3.02As18Fe9.98,7.62
Li0.25Sr2Cu1I22,4.5
Li0.15Sr2Cu1Br22,8.0
Mo1Te1.8S0.2,1.3
Mo1Te1.88S0.12,0.832
Mo1Te1.84S0.16,0.893
Mo1Te1.82S0.18,0.981
Mo1Te1.78S0.22,1.143
Mo1Te1.72S0.28,0.736
Mo1Te1.63S0.37,0.04
Ca0.1M0.05Mo1S2,6.31
Ca0.15M0.15Mo1S2,7.53
Ca0.2M0.17Mo1S2,8.55
Ca0.25M0.2Mo1S2,5.75
Ca0.3M0.31Mo1S2,5.37
Ca0.35M0.33Mo1S2,5.12
As1Sn1,3.58
Bi1,8.68
Ca1Fe1.958Rh0.042As2,11.9
Ca1Fe1.952Rh0.048As2,12.8
Ca1Fe1.96Rh0.04As2,10.8
Ca1Fe1.956Rh0.044As2,11.4
Sr0.5La0.5F1Bi1S2,2.1
Bi1,8.4
Ba1,4.85
La1F0.1Bi1S1Se1O0.9,3.5
La1F2Bi1S1Se1O0.8,3.8
La1F0.3Bi1S1Se1O0.7,3.9
La1F0.4Bi1S1Se1O0.6,3.9
La1F0.5Bi1S1Se1O0.5,3.9
Ba1Fe2As1.52P0.48,23.3
Ba1Fe2As1.44P0.56,30.0
Ba1Fe2As1.4P0.6,21.7
La1Ni1C2,2.8
La0.995Ce0.005Ni1C2,2.4
La0.99Ce0.01Ni1C2,1.9
La0.985Ce0.015Ni1C2,1.5
Eu0.5Ce0.5F1Bi1S2,2.3
Eu0.5Ce0.5F1Bi1S1.8Se0.2,2.68
Eu0.5Ce0.5F1Bi1S1.6Se0.4,3.02
Eu0.5Ce0.5F1Bi1S1.4Se0.6,3.53
Eu0.5Ce0.5F1Bi1S1.2Se0.8,3.61
Eu0.5Ce0.5F1Bi1S1Se1,3.36
Ti2Ge1C1,9.5
D2S1,53.0
H2S1,135.0
Ba8Si46,7.5
Bi2Te3,7.0
Bi4S3O4,4.02
Na0.55M0.41Mo1Se2,5.0
Ba1Nb1S3,1.89
Nb0.25Bi2Se3,3.4
U1Co1Ge1,0.42
U1Co1Ge1,0.35
Ca1Fe2As1.94P0.06,11.0
Ca1Fe2As1.9P0.1,12.6
Ca1Fe2As1.86P0.14,20.0
Ca1Fe2As1.83P0.17,28.8
Bi0.93Sb0.07,6.415
Bi0.93Sb0.07,3.67
Bi0.85Sb0.15,3.45
Pr1Rh2Zn20,0.06
Ba0.6K0.4Fe2As2,39.0
Ba0.6K0.4Fe2As2,36.8
Ba1Fe1.784Co0.216As2,16.0
Ba1Fe1.746Co0.254As2,8.0
Sc1V2Al20,1.03
Y1V2Al20,0.61
Lu1V2Al20,0.6
Ca0.74La26Fe0.975Co0.025As2,11.2
Ca0.74La26Fe0.954Co0.046As2,21.5
Ca0.74La26Fe0.935Co0.065As2,16.2
Ca0.74La26Fe0.967Co0.033As2,15.6
Eu1Fe1.82Ir0.18As2,19.95
Eu1Fe1.86Rh0.14As2,14.35
Nb0.05Bi2Se3,2.57
Nb0.2Bi2Se3,3.27
Nb0.25Bi2Se3,3.31
Nb0.3Bi2Se3,3.27
Nb0.4Bi2Se3,3.52
Nb1Bi2Se3,2.9
Lu3Os4Ge13,3.2
Y3Ru4Ge13,2.8
Ag2Pd3S1,2.25
Eu1Fe1.86Rh0.14As2,12.6
Pb1Ta1Se2,3.6
Pb1Ta1Se2,3.79
Pb1Ta1Se2,3.11
Pb1Ta1Se2,2.14
Bi4I4,4.2
Ba1Fe2S3,11.2
Li0.8Fe1.2H1Se1O1,40.0
Li0.8Fe1.2H1Se1O1,37.0
Th1Co1C2,2.47
Th1Co0.9Ni0.1C2,4.38
Th1Co0.8Ni0.2C2,7.65
Th1Co0.7Ni0.3C2,10.34
Th1Co0.6Ni0.4C2,11.83
Th1Co0.5Ni0.5C2,10.96
Nb1Os1Si1,3.3
Ta1Os1Si1,5.5
Th1Co1C2,2.65
Ba1Ir2As2,2.4
Ca9.6La0.4Pt3Fe10As18,12.7
Ca8.9La1.1Pt3Fe10As18,23.3
Ca8.2La1.8Pt3Fe10As18,21.9
Ca9.4La0.6Pt3Fe10As18,18.2
Ca9.1La0.9Pt3Fe10As18,22.2
Pd1Se2,13.1
Li0.36M1Fe2Se2,44.56
Pb1Ta1Se2,4.02
Mo1S2,9.4
Th1Ni1Si1,0.875
Ba2Ti2Fe2As4O1,21.1
Ba2Ti2Fe1.98Cr0.02As4O1,19.1
Ba2Ti2Fe1.96Cr0.04As4O1,15.7
Ba2Ti2Fe1.94Cr0.06As4O1,11.8
Ba2Ti2Fe1.92Cr0.08As4O1,8.21
Ba2Ti2Fe1.9Cr0.1As4O1,5.29
Ba2Ti2Fe1.88Cr0.12As4O1,2.89
M1Ti1Se2,2.8
Li0.02M1Ti1Se2,4.0
Li0.04M1Ti1Se2,2.8
Li0.06M1Ti1Se2,2.7
Li0.08M1Ti1Se2,2.7
Li0.1M1Ti1Se2,2.7
Li0.15M1Ti1Se2,2.7
Li0.2M1Ti1Se2,2.4
Li0.3M1Ti1Se2,2.8
Li1M1Ti1Se2,2.8
Li0.1M1Ti1Se2,4.2
Li0.2M1Ti1Se2,4.2
Ca0.82La0.18Fe1As2,30.95
Ca0.79La0.21Fe1As2,36.35
Ca0.74La0.26Fe1As2,26.1
Na1Sn2As2,1.2
Li0.05Cs1Sr2Nb3O10,5.43
Li0.1Cs1Sr2Nb3O10,5.43
Li0.2Cs1Sr2Nb3O10,5.21
Li0.3Cs1Sr2Nb3O10,5.22
Li0.5Cs1Sr2Nb3O10,5.0
Li0.6Cs1Sr2Nb3O10,5.01
Li0.1Rb1Ca2Nb3O10,3.51
Li0.1K1Ca2Nb3O10,5.51
Li0.1Cs1Ca2Nb3O10,5.62
Li0.1Rb1Sr2Nb3O10,6.02
S1,17.4
Li1.84H1Fe1.14Se1O1,40.5
Nb0.25Bi2Se3,3.5
Ba1Fe1.864Rh0.136As2,23.3
Ba1Fe1.786Rh0.214As2,13.3
Li0.32M1Fe2Se0.8Te1.2,21.0
Fe1Se0.4Te0.6,8.0
Ga41Mo8,9.8
Ga41Mo7V1,9.2
Th1As1Fe1N1,30.0
Ca0.8La0.2Fe0.98Co0.02As2,37.5
Ca0.8La0.2Fe0.98Co0.02As2,8.95
Ca0.8La0.2Fe0.98Co0.02As2,16.08
Ca0.8La0.2Fe0.98Co0.02As2,23.89
La0.8Ti0.2Bi1S2O1,2.48
La0.85Th0.15Bi1S2O1,2.64
La1F0.5Bi1S2O0.5,2.2
La1F0.5Bi1Se2O0.5,3.95
Pd1Te2,1.64
Ca1K1Fe4As4,35.1
Ca1K1Fe3.932Ni0.068As4,29.3
Ca1K1Fe3.872Ni0.128As4,20.4
Ca1K1Fe3.804Ni0.196As4,10.5
Sm0.04La0.96Ni1C2,1.01
Rb1Eu1Fe4As4,36.4
Rb1Eu1Fe3.9Ni0.1As4,30.3
Rb1Eu1Fe3.8Ni0.2As4,23.0
Rb1Eu1Fe3.76Ni0.24As4,18.1
Rb1Eu1Fe3.72Ni0.28As4,11.2
Rb1Eu1Fe3.68Ni0.32As4,2.1
Mo1S2,12.2
Au1Be1,3.3
Pd1Te2,1.78
Re24Ti5,6.0
Li0.36M1Fe2As2,43.15
Sr1Au1Si3,1.54
B2Ru1,1.5
Pd1Te2,1.75
La1Fe0.995Mn0.005As1F0.11O0.89,15.0
La0.99Y0.01Fe0.995Mn0.005As1F0.11O0.89,10.9
La0.97Y0.03Fe0.995Mn0.005As1F0.11O0.89,19.0
La0.95Y0.05Fe0.995Mn0.005As1F0.11O0.89,21.0
La0.9Y0.1Fe0.995Mn0.005As1F0.11O0.89,25.0
La0.85Y0.15Fe0.995Mn0.005As1F0.11O0.89,26.0
La0.8Y0.2Fe0.995Mn0.005As1F0.11O0.89,29.1
La0.8Y0.2Fe1As1F0.11O0.89,33.2
La0.8Y0.2Fe0.999Mn0.001As1F0.11O0.89,31.8
La0.8Y0.2Fe0.998Mn0.002As1F0.11O0.89,31.2
La0.8Y0.2Fe0.992Mn0.008As1F0.11O0.89,25.0
La0.8Y0.2Fe0.985Mn0.015As1F0.11O0.89,20.2
La0.8Y0.2Fe0.98Mn0.02As1F0.11O0.89,11.0
La0.8Y0.2Fe0.97Mn0.03As1F0.11O0.89,10.8
La0.8Y0.2Fe0.965Mn0.035As1F0.11O0.89,4.7
Te2Ti1,2.5
Te2Ti1,2.98
Cs1Ca2Fe4As4F2,28.31
K1Ca2Fe4As4F2,33.36
Ce1Rh1Ge3,1.33
Na0.4M1Fe1As1,35.0
Na0.6M1Fe1As1,44.0
Lu1Ru1B2,9.8
La1F0.4Bi1S0.899Se1.101O0.6,3.77
La1F0.4Bi1S0.906Se1.094O0.6,3.76
La1F0.4Bi1S0.872Se1.128O0.6,3.76
La1F0.4Bi1S0.863Se1.137O0.6,3.77
La1Fe1Si1H1,9.7
Re6Ti1,6.0
La1Bi1S2F0.5O0.5,3.7
Ba0.45K0.55Fe2As2,32.7
Pr1Ti2Al20,1.12
Pr1Ti2Al20,0.61
Pr1V2Al20,0.048
Mo1S2,12.0
Mo1S2,10.8