composition,critical_temperature_tc
Y0.8Ca0.2Ba1.95Nd0.05Cu3OZ,76.0
Y0.8Ca0.2Ba1.9Nd0.1Cu3OZ,79.0
Y0.8Ca0.2Ba1.85Nd0.15Cu3OZ,83.0
Y0.8Ca0.2Ba0.8Nd0.2Cu3OZ,73.0
Y0.8Ca0.2Ba1.75Nd0.25Cu3OZ,69.0
Y0.8Ca0.2Ba1.7Nd0.3Cu3OZ,63.0
Y0.8Ca0.2Ba1.6Nd0.4Cu3OZ,58.0
Y0.8Ca0.2Ba1.5Nd0.5Cu3OZ,32.0
Y0.95Ca0.05Ba2Cu2.95Co0.05O6.96,88.0
Y0.9Ca0.1Ba2Cu2.9Co0.1O6.95,88.0
Y0.85Ca0.15Ba2Cu2.85Co0.15O6.97,86.0
Y0.8Ca0.2Ba2Cu2.8Co0.2O6.98,82.5
Y0.75Ca0.25Ba2Cu2.75Co0.25O7,82.5
Y0.7Ca0.3Ba2Cu2.7Co0.3O7.02,82.0
Y1Ba2Cu3O6.82,85.0
Y0.95Ca0.05Ba2Cu2.95Co0.05O6.84,72.5
Y0.9Ca0.1Ba2Cu2.9Co0.1O6.84,69.5
Y0.85Ca0.15Ba2Cu2.85Co0.15O6.83,67.5
Y0.8Ca0.2Ba2Cu2.8Co0.2O6.83,69.0
Y0.75Ca0.25Ba2Cu2.75Co0.25O6.82,67.5
Y0.7Ca0.3Ba2Cu2.7Co0.3O6.84,70.0
Y1Ba2Cu3O6.74,79.5
Y0.95Ca0.05Ba2Cu2.95Co0.05O6.75,64.0
Y0.9Ca0.1Ba2Cu2.9Co0.1O6.76,57.5
Y0.85Ca0.15Ba2Cu2.85Co0.15O6.78,57.5
Y0.8Ca0.2Ba2Cu2.8Co0.2O6.78,55.5
Y0.75Ca0.25Ba2Cu2.75Co0.25O6.8,61.0
Y0.7Ca0.3Ba2Cu2.7Co0.3O6.78,59.0
Pr1.85Ce0.15Cu1O4-z,18.0
Sr2Cu1F2O2,46.0
Y1Ba2Cu3O4,92.0
Tl0.5Pb0.5Sr1.6Ba0.4Ca2Cu3OZ,120.0
Tl0.5Pb0.5Sr1.6Ba0.4Ca2Cu3F0.1OZ,120.5
Tl0.5Pb0.5Sr1.6Ba0.4Ca2Cu3F2.2OZ,121.0
Tl0.5Pb0.5Sr1.6Ba0.4Ca2Cu3F3OZ,123.5
Hg0.8Ba2Cu1.2O4+Z,97.0
Hg0.8Ba2Cu1.2O4+Z,80.0
Hg0.8Ba2Cu1.2O4+Z,75.0
Hg0.8Ba2Cu1.2O4+Z,55.0
Hg0.8Ba2Cu1.2O4+Z,92.0
Hg0.8Ba2Cu1.2O4+Z,85.0
Hg0.8Ba2Cu1.2O4+Z,62.0
La2Cu1O4+Z,33.0
La1.89Ca1.1Cu2O6+Z,47.0
Nd2Cu1FO4-X,21.0
Bi2Sr2Ca1Cu2O8+Z,89.0
Bi2Sr2Ca1Cu2O8+Z,79.0
Bi2Sr2Ca1Cu2O8+Z,71.0
Dy1Ba2Cu3O7,91.05
Sm1La0.8Sr0.2Cu1O3.95,28.8
Sm1La0.8Sr0.2Cu1O3.945,26.0
Sm1La0.8Sr0.2Cu1O3.94,24.6
Sm1La0.8Sr0.2Cu1O3.925,19.6
Nd1.85Ce0.15Cu1O4-Z,20.0
Nd1.83Ce0.17Cu1O4-Z,12.0
Nd1.82Ce0.18Cu1O4-Z,6.0
Nd1.8Ce0.2Cu1O4-Z,1.3
Y1Ba2Cu3O6.96,88.0
Y0.95Pr0.05Ba2Cu3O6.96,87.5
Y0.9Pr0.1Ba2Cu3O6.96,83.0
Y0.8Pr0.2Ba2Cu3O6.96,70.0
Y0.7Pr0.3Ba2Cu3O6.96,57.0
Y0.6Pr0.4Ba2Cu3O6.96,32.0
Y0.5Pr0.5Ba2Cu3O6.96,12.0
La1.35Ba1.5Ca0.15Cu3O6.67,43.0
La1.3Ba1.5Ca0.2Cu3O6.72,48.0
La1.25Ba1.5Ca0.25Cu3O6.74,70.0
La1.65Ba1.5Ca0.35Cu3O6.79,72.0
La1.1Ba1.5Ca0.4Cu3O6.82,72.0
La1.05Ba1.5Ca0.45Cu3O6.81,74.0
La1Ba1.5Ca0.5Cu3O6.85,76.0
La0.9Ba1.5Ca0.6Cu3O6.74,73.0
La1Ba1.4Ca0.6Cu3O6.9,74.0
La1Ba1.3Ca0.7Cu3O6.92,73.0
La1Ba1.2Ca0.8Cu3O6.95,74.0
La1Ba1.1Ca0.9Cu3O7.02,75.0
La1Ba1Ca1Cu3O6.99,75.0
La1Ba0.9Ca1.1Cu3O7.05,71.0
La1Ba0.8Ca1.2Cu3O7.11,60.0
Pr1.85Ce0.15Cu1O4+Z,23.2
Pr1.85Ce0.15Cu1O4+Z,12.1
Y1Ba2Cu3O6.37,13.5
Y1Ba2Cu3O6.38,10.1
Y1Ba2Cu3O6.38,11.3
Y1Ba2Cu3O6.38,15.4
Y1Ba2Cu3O6.38,17.0
Y1Ba2Cu3O6.43,35.0
Y1Ba2Cu3O6.45,31.5
Y1Ba2Cu3O6.45,33.5
Y1Ba2Cu3O6.45,35.7
Y1Ba2Cu3O6.45,39.9
Y1Ba2Cu3O6.52,55.0
Y1Ba2Cu3O7,90.1
Pb0.5V0.5Sr2Ca0.7Er0.3Cu2OZ,56.5
Pb0.5V0.5Sr2Ca0.65Er0.35Cu2OZ,50.7
Pb0.5V0.5Sr2Ca0.6Er0.6Cu2OZ,43.8
Pb0.5V0.5Sr2Ca0.5Er0.5Cu2OZ,22.3
Pb0.6V0.4Sr2Ca0.7Er0.3Cu2OZ,58.8
Pb0.6V0.4Sr2Ca0.65Er0.35Cu2OZ,64.1
Pb0.6V0.4Sr2Ca0.6Er0.6Cu2OZ,62.0
Pb0.6V0.4Sr2Ca0.5Er0.5Cu2OZ,38.4
Pb0.7V0.3Sr2Ca0.7Er0.3Cu2OZ,58.8
Pb0.7V0.3Sr2Ca0.65Er0.35Cu2OZ,58.1
Pb0.7V0.3Sr2Ca0.6Er0.4Cu2OZ,58.8
Pb0.7V0.3Sr2Ca0.5Er0.5Cu2OZ,16.6
Pb0.6V0.4Sr2Ca0.65Lu0.35Cu2OZ,63.6
Pb0.6V0.4Sr2Ca0.65Dy0.35Cu2OZ,56.6
Pb0.6V0.4Sr2Ca0.65Gd0.35Cu2OZ,36.6
Pb0.6V0.4Sr2Ca0.65Sm0.35Cu2OZ,25.5
Pb0.6V0.4Sr2Ca0.6Lu0.4Cu2OZ,62.6
Pb0.6V0.4Sr2Ca0.6Dy0.4Cu2OZ,53.6
Pb0.6V0.4Sr2Ca0.6Gd0.4Cu2OZ,33.1
Pb0.6V0.4Sr2Ca0.6Sm0.4Cu2OZ,20.5
Ca0.1La0.9Ba1.65La0.35Cu3O7.15,57.0
Ca0.2La0.8Ba1.55La0.45Cu3O7.16,68.0
Ca0.3La0.7Ba1.45La0.55Cu3O7.16,76.0
Ca0.4La0.6Ba1.35La0.65Cu3O7.15,80.0
Ca0.4La0.6Ba1.35La0.65Cu2.955Ni0.045OZ,71.3
Ca0.4La0.6Ba1.35La0.65Cu2.925Ni0.075OZ,63.8
Ca0.4La0.6Ba1.35La0.65Cu2.85Ni0.15OZ,45.7
Ca0.4La0.6Ba1.35La0.65Cu2.76Ni0.24OZ,23.6
Ca0.4La0.6Ba1.35La0.65Cu2.7Ni0.3OZ,16.5
Hg0.7Cr0.3Sr2Ca1Cu2OZ,80.0
Hg0.7Cr0.3Sr2Ca2Cu3OZ,98.0
Hg0.7Cr0.3Sr2Ca3Cu4OZ,64.0
Hg0.7Cr0.3Sr2Ca4Cu5OZ,45.0
Tl1Sr2Ca2Cu3O9.4,86.0
Y1Ba2Cu3OZ,90.7
Y1Ba2Cu2.85Au0.15OZ,92.3
Y1Ba2Cu2.7Au0.3OZ,87.8
Y1Ba2Cu2.55Au0.45OZ,71.8
Bi2Sr2Ca1Cu2OZ,83.7
Bi2Sr2Ca1Cu1.54Au0.46OZ,74.7
Bi2Sr2Ca1Cu1.2Au0.8OZ,73.2
Bi2Sr2Ca1Cu0.2Au1.8OZ,70.1
Bi2Sr2Ca1Cu-1.7Au3.7OZ,63.0
Bi2Sr2Ca1Cu2O8+Z,85.6
Bi2Sr2Ca0.975La0.025Cu2O8+Z,73.5
Bi2Sr2Ca0.95La0.05Cu2O8+Z,64.4
Bi2Sr2Ca0.925La0.075Cu2O8+Z,57.6
Bi2Sr2Ca0.8La0.2Cu2O8+Z,29.6
Bi2Sr2Ca0.75La0.25Cu2O8+Z,17.4
Hg0.75Mo0.25Ba2Cu1O4.59,12.0
Hg0.75Mo0.25Ba2Cu1O4.51,40.0
Sr3.1Ca5.9Bi0.4Y0.3Pb0.3Cu16.7O29,80.0
Nd1Ba2Cu3O7-Z,95.65
La1.91Sr0.09Cu1O4,27.9
La1.88Sr0.12Cu1O4,32.0
La1.85Sr0.15Cu1O4,35.1
La1.82Sr0.18Cu1O4,32.2
La1.81Sr0.19Cu1O4,29.1
Bi2Sr2Ca1Cu2O8+Z,80.0
Hg0.75Re0.22Ba2Ca5Cu6OZ,100.0
Hg0.75Re0.22Ba2Ca6Cu7OZ,84.0
La1.85Nd0Ca1.15Cu2O5.99,23.0
La1.8Nd0.05Ca1.15Cu2O6-Z,19.0
La1.75Nd0.1Ca1.15Cu2O6-Z,15.0
La1.7Nd0.15Ca1.15Cu2O6-Z,11.0
La1.65Nd0.2Ca1.15Cu2O5.99,5.0
Tl1Sr3Ba1Cu2Co3OZ,52.2
Tl1Sr2.5Ba1.5Cu2Co3OZ,64.0
Tl1Sr2Ba2Cu2Co3OZ,69.0
Tl1Sr1.5Ba2.5Cu2Co3OZ,64.0
Tl1Ba2Ca2Cu3O9+Z,103.0
Sr0.6Ca0.333Cu1O2.15,82.0
Sr0.6Ca0.333Cu1O2.2,98.0
Sr0.9La0.1Cu1O2,42.0
Sr0.7Ca0.3Cu1O2,110.0
Sr2Ru1O4,0.616
Sr2Ru1O4,0.954
Sr2Ru1O4,1.201
Sr2Ru1O4,1.242
Sr2Ru1O4,1.398
Sr2Ru1O4,1.489
Bi0.1485Mo0.1815Cu2.67Sr2Y1O7.21,20.6
Bi0.132Mo0.198Cu2.67Sr2Y1O7.2,29.0
Bi0Mo0.33Cu2.67Sr2Y1O7.41,33.0
Bi0.066Mo0.264Cu2.67Sr2Y1O7.32,31.0
Tl0.5Pb0.5Sr2Ca2Cu3OZ,119.0
Tl0.5Pb0.5Sr2Ca2Cu3Li0.2OZ,117.0
Y1Ba2Cu4O8,81.9
La1.88Sr0.12Cu1O4,16.4
La1.84Sr0.16Cu1O4,22.6
La1.83Sr0.17Cu1O4,21.0
Y1Ba2Cu3O7-Z,91.3
Bi2Sr2Ca1Cu2O8+Z,88.5
La1.45Nd0.4Sr0.15Cu1O4,12.0
Y1Ba2Cu3.96Ni0.04O8,57.0
Y1Ba2Cu4O8,82.0
Nd1Ba2Cu3O7-Z,95.56
Ru1Sr2Gd1Cu2O8,40.5
Sr2Ru1O4,1.2
Tl0.58Pb0.4Sr1.6Ba0.4Ca2Cu3OZ,110.0
Tl0.79Bi0.25Sr1.6Ba0.4Ca2Cu3OZ,115.0
Tl0.74Bi0.3Sr1.8Ba0.2Ca2Cu3OZ,120.0
Gd1Ba2Cu4O8,74.0
Bi1.8Pb0.3Sr1.9Cu1OZ,4.7
Bi1.8Pb0.2Sr2Ca1Cu2O8,67.0
Bi1.8Pb0.2Sr2Ca1Cu2O8,92.0
Bi1.8Pb0.2Sr2Ca1Cu2O8,80.0
Bi1.8Pb0.2Sr2Ca1Cu2O8,81.0
Lu1Ba2Cu3O7-Z,91.85
Ba2Ca2Cu3OZ,124.0
Ba2Ca2Cu3OZ,78.0
Ba2Ca2Cu3OZ,126.0
Ba2Ca2Cu3OZ,90.0
Y0.975Yb0.025Ba2Cu3OZ,65.0
Y0.975Yb0.025Ba2Cu3OZ,92.0
Y0.975Yb0.025Ba2Cu3OZ,88.0
Bi2.12Sr1.71Ca1.22Cu1.95OZ,85.1
Hg1Ba2Cu1O4.02,72.0
Hg0.95Sb0.05Ba2Ca2Cu3O8+Z,132.0
Y1Ba2Cu3O6.95,93.4
Tl2Ba2Cu1O6+Z,10.0
Tl2Ba2Cu1O6.056,40.0
Tl2Ba2Cu1O6+Z,50.0
Tl2Ba2Cu1O6+Z,75.0
Tl2Ba2Ca2Cu3O10+Z,128.5
Hg1Ba2Ca2Cu3O8+Z,134.0
Hg1Ba2Cu1O4+Z,92.5
Hg1Ba2Ca1Cu2O6+Z,116.0
Hg1Ba2Ca2Cu3O8+Z,123.0
Hg0.9Pb0.1Ba2Ca2Cu3O8+Z,130.0
Hg0.8Pb0.2Ba2Ca2Cu3O8+Z,132.0
Y1Ba2Cu4O8,77.5
Y0.9Tb0.1Ba2Cu4O8,78.0
Y0.9Ce0.1Ba2Cu4O8,38.0
Ba1Ca0.7Cd0.3La1Cu3OZ,55.4
Ba1Ca0.75Cd0.25La1Cu3OZ,60.6
Ba1Ca0.8Cd0.2La1Cu3OZ,65.3
Ba1Ca0.9Cd0.1La1Cu3OZ,74.0
Ba1Ca1La1Cu3OZ,80.0
Yb0.8Pr0.2Ba2Cu3O7-Z,83.6
Tm0.8Pr0.2Ba2Cu3O7-Z,80.9
Er0.8Pr0.2Ba2Cu3O7-Z,78.5
Ho0.8Pr0.2Ba2Cu3O7-Z,74.1
Dy0.8Pr0.2Ba2Cu3O7-Z,69.1
Gd0.8Pr0.2Ba2Cu3O7-Z,66.8
Eu0.8Pr0.2Ba2Cu3O7-Z,64.0
Sm0.8Pr0.2Ba2Cu3O7-Z,52.6
Nd0.8Pr0.2Ba2Cu3O7-Z,40.9
Gd1Ba2Cu3O6.969,91.0
Gd0.95Mo0.05Ba2Cu3O6.948,82.4
Gd0.9Mo0.1Ba2Cu3O6.907,65.9
Gd0.85Mo0.15Ba2Cu3O6.855,59.2
Gd0.8Mo0.2Ba2Cu3O6.807,52.5
Gd0.8Ca0.05Mo0.15Ba2Cu3O6.651,66.1
Gd0.75Ca0.1Mo0.15Ba2Cu3O6.671,75.1
Gd0.7Ca0.15Mo0.15Ba2Cu3O6.716,86.3
Gd0.65Ca0.2Mo0.15Ba2Cu3O6.818,84.1
Gd0.6Ca0.25Mo0.15Ba2Cu3O6.761,83.7
Gd0.55Ca0.3Mo0.15Ba2Cu3O6.626,80.7
Gd0.5Ca0.35Mo0.15Ba2Cu3O6.586,77.7
Gd0.45Ca0.4Mo0.15Ba2Cu3O6.537,73.0
Pb0.7Sr2Ca0.5Y0.5Cu2.3O7-Z,40.0
Pb0.5Cd0.5Sr2Ca0.5Y0.5Cu2O7-Z,65.0
Bi2Sr2Ca1Cu2Oz,90.4
Bi2Sr2Ca0.95Pr0.05Cu2Oz,91.1
Bi2Sr2Ca0.87Pr0.13Cu2Oz,88.9
Bi2Sr2Ca0.78Pr0.22Cu2Oz,85.5
Bi2Sr2Ca0.6Pr0.4Cu2Oz,81.6
Bi2Sr2Ca0.89Y0.11Cu2Oz,87.6
Bi2Sr2Ca0.8Y0.2Cu2Oz,82.0
Bi2Sr2Ca0.69Y0.31Cu2Oz,70.8
Bi2Sr2Ca0.59Y0.41Cu2Oz,56.1
Eu1.5Ce0.5Ru1Sr2Cu2O10,32.0
Eu1.5Ce0.5Ru1Sr2Cu2O10,38.0
Eu1.5Ce0.5Ru1Sr2Cu2O10,46.0
Eu1.5Ce0.5Ru1Sr2Cu2O10,49.0
Sr2.5Ca11.5Cu24O41,5.0
Bi2Sr2Ca1Cu2Oz,84.0
Bi2Sr2Ca0.91Gd0.09Cu2Oz,87.0
Bi2Sr2Ca0.81Gd0.19Cu2Oz,83.0
Bi2Sr2Ca0.68Gd0.32Cu2Oz,78.0
Bi2Sr2Ca0.59Gd0.41Cu2Oz,63.1
Fe0.33Sr2Y1Cu2.67Oz,30.0
Ga0.33Sr2Y1Cu2.67Oz,25.0
Ti0.33Sr2Y1Cu2.67Oz,26.0
Mo0.33Sr2Y1Cu2.67Oz,35.0
W0.33Sr2Y1Cu2.67Oz,28.0
Re0.33Sr2Y1Cu2.67Oz,33.0
La2Cu1O4.093,45.0
La2Cu1O4.068,36.0
La1.9Sr0.1Cu1O3.997,32.0
La1.9Sr0.1Cu1O4.018,40.0
La1.9Sr0.1Cu1O4.023,40.0
Tl2Ba2Ca1Cu2Oz,105.0
Tl1.7Hg0.3Ba2Ca1Cu2Oz,108.0
Tl2Ba2Ca2Cu3Oz,123.0
Tl1.4Hg0.6Ba2Ca2Cu3Oz,118.0
La1.85Sr0.15Cu1O3.998,37.0
La1.85Sr0.15Cu1O4.022,40.0
La1.85Sr0.15Cu1O4.03,40.0
Pr1.85Ce0.15Cu1O4,17.0
Pr1.8315Y0.0185Ce0.15Cu1O4,16.0
Pr1.7945Y0.0555Ce0.15Cu1O4,15.0
Pr1.7575Y0.0925Ce0.15Cu1O4,14.5
Pr1.665Y0.185Ce0.15Cu1O4,13.0
Pr1.5725Y0.2775Ce0.15Cu1O4,11.0
Pr1.48Y0.37Ce0.15Cu1O4,9.5
Nd1.85Y0.15Cu1O4,21.0
Nd1.8315Y0.0185Ce0.15Cu1O4,20.0
Nd1.7945Y0.0555Ce0.15Cu1O4,19.0
Nd1.7575Y0.0925Ce0.15Cu1O4,18.0
Nd1.665Y0.185Ce0.15Cu1O4,16.0
Nd1.5725Y0.2775Ce0.15Cu1O4,10.5
Sm1.85Ce0.15Cu1O4,17.0
Sm1.80375Y0.04625Ce0.15Cu1O4,15.0
Sm1.7575Y0.0925Ce0.15Cu1O4,14.0
Sm1.71125Y0.13875Ce0.15Cu1O4,12.0
Sm1.665Y0.185Ce0.15Cu1O4,10.0
Eu1.85Ce0.15Cu1O4,7.5
La1.85Sr0.15Cu1Oz,38.0
La1.845Sr0.155Cu0.995Fe0.005Oz,30.0
La1.84Sr0.16Cu0.99Fe0.01Oz,20.0
La1.837Sr0.163Cu0.987Fe0.013Oz,12.8
La1.845Sr0.155Cu0.995Ga0.005Oz,32.0
La1.84Sr0.16Cu0.99Ga0.01Oz,26.0
La1.83Sr0.17Cu0.98Ga0.02Oz,13.0
Bi1.8Pb0.2Sr1.6La0.4Cu1Oz,31.2
Bi1.8Pb0.2Sr1.62La0.38Cu0.98Fe0.02Oz,21.1
Bi1.8Pb0.2Sr1.63La0.37Cu0.97Fe0.03Oz,13.0
Bi1.8Pb0.2Sr1.61La0.39Cu0.99Ga0.01Oz,21.8
Bi1.8Pb0.2Sr1.62La0.38Cu0.98Ga0.02Oz,12.0
Bi1.6Pb0.8Sr2Ca1Cu1.99Cr0.01Oz,68.0
La1.92Sr0.08Cu1O4,19.6
La1.914Sr0.086Cu1O4,22.25
Ho1Ba2Cu4O8,79.0
Y1Ba1.96Sr0.04Cu3O6.98,91.8
Y1Ba1.8Sr0.2Cu3O6.98,89.0
Y1Ba1.5Sr0.5Cu3O6.98,86.0
Y1Ba1.3Sr0.7Cu3O6.98,84.5
Y1Ba1Sr1Cu3O6.98,83.6
Y1Ba0.74Sr1.26Cu3O6.98,80.5
Y1Ba0.5Sr1.5Cu3O6.98,78.0
Y1Ba2Cu3O6.72,64.6
Y1Ba2Cu3O6.75,76.6
Y1Ba2Cu3O6.8,88.3
Y1Ba2Cu3O6.93,93.1
Y1Ba2Cu3O6.96,91.4
Y1Ba1.5Sr0.5Cu3O6.75,49.9
Y1Ba1.5Sr0.5Cu3O6.85,72.9
Y1Ba1.5Sr0.5Cu3O6.9,86.3
Y1Ba1.5Sr0.5Cu3O6.91,86.3
Y1Ba1.5Sr0.5Cu3O6.95,85.9
Y1Ba1Sr1Cu3O6.83,58.5
Y1Ba1Sr1Cu3O6.88,75.6
Y1Ba1Sr1Cu3O6.93,80.8
Ru1Sr2Gd1Cu2O8,16.0
Ba2Yb1Cu3O6+z,90.1
Ba1.8Sr0.2Yb1Cu3O6+z,85.6
Ba1.6Sr0.4Yb1Cu3O6+z,79.5
Ba1.4Sr0.6Yb1Cu3O6+z,77.9
Ba1.2Sr0.8Yb1Cu3O6+z,78.5
Ba2Yb1Cu3O6.66,65.3
Ba1.8Sr0.2Yb1Cu3O6.61,56.7
Ba1.6Sr0.4Yb1Cu3O6.69,48.9
Ba1.4Sr0.6Yb1Cu3O6.66,43.1
Ba1.2Sr0.8Yb1Cu3O6.61,36.7
La1.934Ba0.066Cu1O4,22.6
La1.93Ba0.07Cu1O4,23.4
La1.92Ba0.08Cu1O4,26.0
La1.897Ba0.103Cu1O4,14.5
La1.892Ba0.108Cu1O4,10.7
La1.89Ba0.11Cu1O4,5.4
La1.86Ba0.14Cu1O4,12.7
La1.84Ba0.16Cu1O4,26.1
La1.82Ba0.18Cu1O4,24.2
La1.78Ba0.22Cu1O4,5.4
La1.92Ba0.08Cu1O4,30.9
La1.895Ba0.105Cu1O4,33.1
La1.89Ba0.11Cu1O4,32.3
La1.884Ba0.116Cu1O4,21.8
La1.881Ba0.119Cu1O4,9.3
La1.877Ba0.123Cu1O4,23.6
La1.86Ba0.14Cu1O4,30.1
La1.84Ba0.16Cu1O4,29.3
La1.92Sr0.08Cu1O4,27.1
La1.9Sr0.1Cu1O4,31.8
La1.883Sr0.117Cu1O4,31.6
La1.868Sr0.132Cu1O4,34.4
La1.847Sr0.153Cu1O4,37.6
La1.828Sr0.172Cu1O4,37.5
La1.8Sr0.2Cu1O4,33.0
La1.78Sr0.22Cu1O4,21.3
La1.92Sr0.08Cu1O4,29.6
La1.9Sr0.1Cu1O4,34.1
La1.883Sr0.117Cu1O4,34.4
La1.868Sr0.132Cu1O4,36.6
La1.847Sr0.153Cu1O4,40.9
La1.828Sr0.172Cu1O4,41.2
La1.8Sr0.2Cu1O4,33.3
La1.78Sr0.22Cu1O4,22.1
La1.89Ba0.11Cu1O4,11.9
La1.86Ba0.14Cu1O4,7.4
Bi2Sr2Ca1Cu2Oz,76.1
Bi2Sr2Ca0.9Ga0.1Cu2Oz,76.1
Bi2Sr2Ca0.8Ga0.2Cu2Oz,76.1
Bi2Sr2Ca0.7Ga0.3Cu2Oz,76.1
Bi2Sr2Ca0.5Ga0.5Cu2Oz,76.1
Nd1.75Sm0.1Ce0.15Cu1O3.972,22.2
Nd1.65Sm0.2Ce0.15Cu1O3.971,21.6
Nd1.55Sm0.3Ce0.15Cu1O3.972,21.8
Nd1.85Ce0.15Cu1O3.971,21.6
Nd1.55La0.3Ce0.15Cu1Oz,19.6
Nd1.05La0.8Ce0.15Cu1Oz,16.3
Nd0.85La1Ce0.15Cu1Oz,14.9
La1.52Nd0.4Sr0.08Cu1O4,6.62
La1.5Nd0.4Sr0.1Cu1O4,6.62
La1.48Nd0.4Sr0.12Cu1O4,2.65
La1.45Nd0.4Sr0.15Cu1O4,10.6
La1.4Nd0.4Sr0.2Cu1O4,13.9
Tl0.5Ba2Ca2Cu3.5O10-z,132.0
Y0.6Pr0.4Ba2Cu3O6.95,37.0
Y0.6Pr0.4Ba2Cu3O6.85,27.8
Y0.6Pr0.4Ba2Cu3O6.61,26.0
Y0.6Pr0.4Ba2Cu3O6.66,25.4
Y0.6Pr0.4Ba2Cu3O6.76,23.7
Y0.6Pr0.4Ba2Cu3O6.53,15.0
Y1Ba2Cu3O6.45,33.0
Y1Ba2Cu3O6.53,50.3
Y1Ba2Cu3O6.61,55.5
Y1Ba2Cu3O6.66,56.7
Y1Ba2Cu3O6.71,59.0
Y1Ba2Cu3O6.76,63.0
Y1Ba2Cu3O6.85,87.9
Y1Ba2Cu3O6.95,90.2
Y0.5Pr0.5Ba2Cu3O6.53,5.2
Y0.5Pr0.5Ba2Cu3O6.61,4.6
Y0.5Pr0.5Ba2Cu3O6.66,3.5
Y0.5Pr0.5Ba2Cu3O6.71,4.0
Y0.5Pr0.5Ba2Cu3O6.76,4.0
Y0.5Pr0.5Ba2Cu3O6.85,4.0
Y0.5Pr0.5Ba2Cu3O6.95,12.7
Sm0.8Pr0.2Ba2Cu3O6.65,21.0
Sm0.8Pr0.2Ba2Cu3O6.7,25.6
Sm0.8Pr0.2Ba2Cu3O6.75,23.4
Sm0.8Pr0.2Ba2Cu3O6.85,26.0
Sm0.8Pr0.2Ba2Cu3O6.95,41.0
Sm1Ba2Cu3O6.55,12.8
Sm1Ba2Cu3O6.65,32.8
Sm1Ba2Cu3O6.75,38.4
Sm1Ba2Cu3O6.85,54.7
Sm1Ba2Cu3O6.95,79.4
Sm0.9Pr0.1Ba2Cu3O6.55,12.2
Sm0.9Pr0.1Ba2Cu3O6.65,30.6
Sm0.9Pr0.1Ba2Cu3O6.75,36.3
Sm0.9Pr0.1Ba2Cu3O6.85,42.2
Sm0.9Pr0.1Ba2Cu3O6.95,57.5
Sm0.7Pr0.3Ba2Cu3O6.65,10.6
Sm0.7Pr0.3Ba2Cu3O6.75,6.6
Sm0.7Pr0.3Ba2Cu3O6.8,5.0
Sm0.7Pr0.3Ba2Cu3O6.85,4.4
Sm0.7Pr0.3Ba2Cu3O6.95,23.1
Bi3Pb1Sr3Ca3Cu4Oz,94.0
Bi3Pb1Sr3Ca3Cu3.8Cr0.2Oz,57.5
Bi3Pb1Sr3Ca3Cu3.6Cr0.4Oz,47.5
Bi3Pb1Sr3Ca3Cu3.2Cr0.8Oz,60.0
La1.92Ba0.08Cu1O4,25.0
La1.9Ba0.1Cu1O4,26.0
La1.89Ba0.11Cu1O4,18.8
La1.885Ba0.115Cu1O4,13.9
La1.875Ba0.125Cu1O4,8.9
La1.865Ba0.135Cu1O4,5.98
La1.86Ba0.14Cu1O4,9.96
La1.855Ba0.145Cu1O4,13.0
La1.845Ba0.155Cu1O4,26.0
La1.84Ba0.16Cu1O4,27.0
La1.83Ba0.17Cu1O4,26.9
La1.82Ba0.18Cu1O4,22.0
La1.8Ba0.2Cu1O4,17.9
La1.83Nd0.1Ba0.07Cu1O4,16.0
La1.8Nd0.1Ba0.1Cu1O4,22.0
La1.79Nd0.1Ba0.11Cu1O4,13.0
La1.75Nd0.1Ba0.15Cu1O4,12.0
La1.74Nd0.1Ba0.16Cu1O4,16.9
La1.72Nd0.1Ba0.18Cu1O4,19.8
La1.72Nd0.2Ba0.08Cu1O4,16.9
La1.7Nd0.2Ba0.1Cu1O4,15.0
La1.69Nd0.2Ba0.11Cu1O4,8.2
La1.64Nd0.2Ba0.16Cu1O4,12.0
La1.62Nd0.2Ba0.18Cu1O4,14.9
La1.6Nd0.2Ba0.2Cu1O4,11.0
La1.52Nd0.4Ba0.08Cu1O4,11.0
La1.5Nd0.4Ba0.1Cu1O4,9.95
La1.475Nd0.4Ba0.125Cu1O4,7.5
Tl1Sr2Ca1Cu2O6.8,68.0
Nd1Ba2Cu3O7-Z,85.0
Nd1.04Ba1.96Cu3O7-Z,86.0
Nd1.2Ba1.8Cu3O7-Z,56.0
Bi2Sr1.77La0.23Cu1O6+Z,28.0
Bi2Sr1.61La0.39Cu1O6+Z,38.8
Bi2Sr1.34La0.66Cu1O6+Z,22.0
Bi2Sr1.27La0.73Cu1O6+Z,14.0
Bi2Sr1.24La0.76Cu1O6+Z,12.1
Bi2Sr1.16La0.84Cu1O6+Z,1.82
Tl1Sr2Ca1Cu2O6.825,40.0
Tl1Sr2Ca1Cu2O6.837,31.5
Tl1Sr2Ca1Cu2O6.85,24.0
Tl1Sr2Ca1Cu2O6.862,15.2
Sr1Nb2Oz,11.5
Sr0.9Nd0.1Nb2Oz,11.5
Ca1Nb2Oz,11.0
Bi1.75Pb0.25Sr2Ca1Cu2.3Oz,85.0
Bi1.75Pb0.25Sr2Ca1Cu2.25Sn0.05Oz,86.0
Bi1.75Pb0.25Sr2Ca1Cu2.15Sn0.15Oz,106.6
Bi1.75Pb0.25Sr2Ca1Cu2.1Sn0.2Oz,105.0
Bi1.75Pb0.25Sr2Ca1Cu1.9Sn0.4Oz,99.0
Nd1Ba2Cu3O6.82,95.0
Nd0.9Ca0.1Ba2Cu3O6.63,84.5
Nd0.8Pr0.2Ba2Cu3O6.81,50.0
Gd1Ba2Cu3O6.94,90.8
Gd0.95Hf0.05Ba2Cu3O6.91,86.9
Gd0.9Hf0.1Ba2Cu3O6.88,84.2
Gd0.85Hf0.15Ba2Cu3O6.84,81.8
Gd0.8Hf0.2Ba2Cu3O6.79,79.5
Gd0.8Ca0.05Hf0.15Ba2Cu3O6.86,80.6
Gd0.75Ca0.1Hf0.15Ba2Cu3O6.89,82.7
Gd0.7Ca0.15Hf0.15Ba2Cu3O6.93,83.8
Gd0.65Ca0.2Hf0.15Ba2Cu3O6.96,86.3
Gd0.6Ca0.25Hf0.15Ba2Cu3O7,81.3
Gd0.55Ca0.35Hf0.15Ba2Cu3O7.06,76.0
Gd0.45Ca0.4Hf0.15Ba2Cu3O7.08,71.9
Ba0.62K0.38Bi1O3,21.5
Ba0.57K0.43Bi1O3,21.2
Ba0.54K0.46Bi1O3,19.0
Ba0.52K0.48Bi1O3,18.7
Ba0.5K0.5Bi1O3,16.5
Ba0.6K0.4Bi1O3,31.2
Ba0.6K0.4Bi1O3,29.1
Hg1Ba2Cu1O4.01,61.0
Ba1Pb0.75Bi0.25O3,11.6
Y1Ba2Cu3O6.8,83.1
Y1Ba2Cu3O7-z,83.1
Y1Ba2Cu3O7-z,82.6
Y1Ba2Cu3O7-z,81.1
Tl2Ba2Ca1Cu2O8,111.0
Bi2Sr2Ca1Cu2O8,89.5
Pr1.85Ce0.15Cu1O4,22.5
Sr0.4K0.6Bi1O3,12.0
Sr0.5Rb0.5Bi1O3,13.0
Sr0.4K0.6Bi1O3,11.18
Sr0.4K0.6Bi1O3,11.0
Sr0.4K0.6Bi1O3,11.5
La1.81Sr0.19Cu1O4,32.0
Bi2Sr1.6La0.4Cu1Oz,4.8
Bi2Sr1.6La0.4Cu1Oz,9.1
Bi2Sr1.6La0.4Cu1Oz,19.4
Bi2Sr1.6La0.4Cu1Oz,23.9
Bi2Sr1.6La0.4Cu1Oz,26.7
Bi2Sr1.6La0.4Cu1Oz,27.6
Bi2Sr1.6La0.4Cu1Oz,25.5
Bi2Sr1.6La0.4Cu1Oz,24.0
Bi2Sr1.6La0.4Cu1Oz,13.0
Bi2Sr2Ca1Cu2Oz,14.6
Bi2Sr2Ca1Cu2Oz,27.8
Bi2Sr2Ca1Cu2Oz,50.0
Bi2Sr2Ca1Cu2Oz,72.9
Bi2.1Sr1.9Ca1Cu2O8+z,71.5
Bi2.1Sr1.9Ca1Cu2O8+z,90.5
Bi2.2Sr1.8Ca1Cu2O8+z,80.5
Y1Ba1Sr1Cu3O7+z,81.0
Y1Ba1Sr1Cu2.95Mo0.05O7.07,85.0
Y1Ba1Sr1Cu2.9Mo0.1O7.16,86.0
Y1Ba1Sr1Cu2.8Mo0.2O7.3,68.0
Hg1Ba2Cu1O4.15,97.2
Hg0.95Re0.05Ba2Cu1O4.37,96.0
Hg0.9Re0.1Ba2Cu1O4.42,95.0
Hg0.85Re0.15Ba2Cu1O4.58,35.0
Hg1Ba2Cu1O4.162,97.4
Hg0.95Re0.05Ba2Cu1O4.372,97.0
Hg0.9Re0.1Ba2Cu1O4.425,96.8
Hg0.85Re0.15Ba2Cu1O4.525,96.3
Sr2Ru1O4,1.49
Bi2Sr2Ca1Cu1.988Ni0.012O8,92.55
Sm1La0.85Sr0.15Cu1O3.98,30.0
Sm1La0.8Sr0.2Cu1O3.94,25.0
Y1Ba2Cu3O6.4,35.8
Y1Ba2Cu3O6.45,47.3
Y1Ba2Cu3O6.5,58.8
La1.85Sr0.15Cu1O4,35.6
La1.75Nd0.1Sr0.15Cu1O4,31.7
La1.73Nd0.12Sr0.15Cu1O4,26.3
La1.65Nd0.2Sr0.15Cu1O4,20.0
La1.45Nd0.4Sr0.15Cu1O4,9.8
Ru1Sr2Y1Cu2O8,35.0
Y1Ba2Cu4O8,78.0
Bi2Sr2Ca1Cu2O8+z,75.5
Bi2Sr2Ca0.937Y0.063Cu2O8+z,78.0
Bi2Sr2Ca0.875Y0.125Cu2O8+z,77.1
Bi2Sr2Ca0.75Y0.25Cu2O8+z,71.3
Bi2Sr2Ca0.65Y0.35Cu2O8+z,45.2
Bi2Sr2Ca0.55Y0.45Cu2O8+z,22.1
Y0.975Ca0.025Ba2Cu4O8,79.5
Y0.95Ca0.05Ba2Cu4O8,82.2
Y0.925Ca0.075Ba2Cu4O8,83.8
Y0.9Ca0.1Ba2Cu4O8,88.9
Y0.8Ca0.2Ba2Cu4O8,85.6
Y0.75Ca0.25Ba2Cu4O8,82.9
Y0.7Ca0.3Ba2Cu4O8,79.5
Y1Ba2Cu3O6.5,55.0
Nd1Ba2Cu3O7-z,95.85
Nd1Ba2Cu3O7-z,94.2
Tl0.52Pb0.5Sr0.8Ba0.2Ca2Cu3Oz,115.0
Tl0.54Pb0.5Sr0.8Ba0.2Ca2Cu3U0.005Oz,114.0
Tl0.54Pb0.5Sr0.8Ba0.2Ca2Cu3U0.01Oz,113.0
Tl0.51Pb0.5Sr0.8Ba0.2Ca2Cu3U0.02Oz,114.0
Tl0.5Pb0.5Sr0.8Ba0.2Ca2Cu3U0.04Oz,114.0
Tl0.53Pb0.5Sr0.8Ba0.2Ca2Cu3U0.08Oz,107.0
Tl0.5Pb0.5Sr0.8Ba0.2Ca2Cu3U0.2Oz,103.0
Bi1.64Pb0.36Sr2Ca0.79Y0.21Cu2O8+z,86.0
La2Cu1O4.0625,17.0
Bi1.6Pb0.4Sr1.8Ba0.2Ca1Cu3Oz,109.3
Bi1.6Pb0.4Sr1.8Ba0.2Ca1.99Er0.01Cu3Oz,107.6
Bi1.6Pb0.4Sr1.8Ba0.2Ca1.98Er0.02Cu3Oz,107.0
Bi1.6Pb0.4Sr1.8Ba0.2Ca1.97Er0.03Cu3Oz,106.0
Bi1.6Pb0.4Sr1.8Ba0.2Ca1.96Er0.04Cu3Oz,105.5
Y0.75Eu0.25Ba2Cu4O8,78.0
Y0.5Eu0.5Ba2Cu4O8,77.0
Y0.25Eu0.75Ba2Cu4O8,75.0
Eu1Ba2Cu4O8,74.0
Y1Ba2Cu3.96Fe0.04O8,73.0
Y1Ba2Cu3.92Fe0.08O8,70.0
Y1Ba2Cu3.88Fe0.12O8,65.0
Y1Ba2Cu3.84Fe0.16O8,61.0
Sr2Y1Ru0.96Cu0.04O6,5.1
Sr2Y1Ru0.95Cu0.05O6,11.9
Sr2Y1Ru0.92Cu0.08O6,17.6
Sr2Y1Ru0.9Cu0.1O6,20.4
Sr2Y1Ru0.8Cu0.2O6,23.0
Sr2Y1Ru0.5Cu0.5O6,61.5
Sr2Y1Ru0.5Cu0.5O6,45.0
Sr2Ru1O4,1.35
Bi1.8Pb0.38Sr2.01Cu1O6-z,19.0
Bi2Sr2Ca1Cu2O8,84.7
Sr2Y1Ru0.9Cu1O6-z,60.0
Ba2Y1Ru0.9Cu0.1O6-z,65.0
Pb2Sr2Eu0.95Ca0.05Cu3O8.1,59.0
Pb2Sr2Eu0.9Ca0.1Cu3O8.1,69.0
Pb2Sr2Eu0.85Ca0.15Cu3O8.1,71.0
Pb2Sr2Eu0.8Ca0.2Cu3O8.1,73.0
Pb2Sr2Eu0.75Ca0.25Cu3O8.1,74.0
Pb2Sr2Eu0.7Ca0.3Cu3O8.1,73.0
Pb2Sr2Eu0.65Ca0.35Cu3O8.1,71.0
Ru1Sr2Eu1Cu2O8,35.0
Ru1Sr2Gd1Cu2O8,48.0
Ru1Sr2Gd0.6Dy0.4Cu2O8,58.0
Ru1Sr1.6Ba0.4Gd1Cu2O8,39.0
Ru1Sr2Gd1Cu2O8+z,45.0
Ru0.9Sr2Gd1Cu2.1O8+z,65.0
Ru0.8Sr2Gd1Cu2.2O8+z,70.0
Ru0.7Sr2Gd1Cu2.3O8+z,72.0
Ru0.6Sr2Gd1Cu2.4O8+z,72.0
Ru0.25Sr2Gd1Cu2.75O8+z,62.0
Sm1.85Ce0.15Cu1O4-z,16.5
Ru1Sr2Gd1Cu2Oz,33.5
Ru0.95Ta0.05Sr2Gd1Cu2Oz,22.5
Ru1Sr2Gd1.4Ce0.6Cu2Oz,40.0
Tl1Sr1.75Th0.25Ca1Cu2O7,51.6
Tl1Sr1.65Th0.35Ca1Cu2O7,55.3
Tl1Sr2Ca0.75Th0.25Cu2O7,52.5
Tl1Sr2Ca0.65Th0.35Cu2O7,55.3
Tl1Sr1.5Gd0.5Ca1Cu2O7,79.0
Tl1Sr1.5Tb0.5Ca1Cu2O7,80.0
Tl1Sr1.5Dy0.5Ca1Cu2O7,80.0
Tl1Sr1.5Ho0.5Ca1Cu2O7,80.0
Tl1Sr1.5Er0.5Ca1Cu2O7,78.0
Tl1Sr1.5Tm0.5Ca1Cu2O7,84.0
Tl1Sr1.5Yb0.5Ca1Cu2O7,84.0
Tl1Sr1.5La0.5Ca1Cu2O7,90.0
Tl1Sr1.5Ce0.5Ca1Cu2O7,5.0
Tl1Sr1.5Pr0.5Ca1Cu2O7,88.0
Tl1Sr1.5Nd0.5Ca1Cu2O7,88.0
Tl1Sr1.5Sm0.5Ca1Cu2O7,86.0
Tl1Sr1.5Eu0.5Ca1Cu2O7,88.0
Tl1Sr1.5Lu0.5Ca1Cu2O7,82.0
Ca5.9Sr3.5Bi0.3Y0.1Pb0.1Al0.1Cu15.1O29,75.0
Ru0.92Ce0.58Sr1.7Eu1.8Cu2O10,26.0
Ru1Sr2Gd1Cu2O8,35.0
Ru1Sr2Gd0.98Ce0.02Cu2O8,13.0
Ru1Sr2Gd0.9Ca0.1Cu2O8,61.0
Eu1Ba2Cu3O7,84.4
Eu0.9Pr0.1Ba2Cu3O7,68.3
Eu0.8Pr0.2Ba2Cu3O7,63.0
Eu0.7Pr0.3Ba2Cu3O7,53.8
Eu0.6Pr0.4Ba2Cu3O7,37.8
Eu0.5Pr0.5Ba2Cu3O7,26.7
Hg1Ba2Cu1O4.09,98.0
Ho1Nb1O3-z,15.0
Eu1Nb1O3-z,6.0
Bi2Sr2Ca1Cu2Oz,90.38
Bi2Sr2Ca0.97Y0.03Cu2Oz,87.56
Bi2Sr2Ca0.95Y0.05Cu2Oz,82.0
Bi2Sr2Ca0.92Y0.08Cu2Oz,70.78
Bi2Sr2Ca0.89Y0.11Cu2Oz,56.1
Bi2Sr1.9La0.1Ca1Cu2Oz,88.67
Bi2Sr1.8La0.2Ca1Cu2Oz,85.3
Bi2Sr1.7La0.3Ca1Cu2Oz,76.3
Bi2Sr1.6La0.4Ca1Cu2Oz,60.73
Tl2Ba2Cu1O6+z,88.9
Tl2Ba2Cu1O6+z,40.0
Nd1Ba2Cu3O7-z,93.3
Nd0.95Pr0.05Ba2Cu3O7-z,84.4
Nd0.9Pr0.1Ba2Cu3O7-z,73.0
Nd0.85Pr0.15Ba2Cu3O7-z,59.7
Nd1Ba2Cu3O7-z,92.81
Nd0.97Ca0.03Ba2Cu3O7-z,90.36
Nd0.94Ca0.06Ba2Cu3O7-z,88.0
Nd0.9Ca0.1Ba2Cu3O7-z,85.34
Nd0.95La0.05Ba2Cu3O7-z,91.78
Nd0.9La0.1Ba2Cu3O7-z,91.09
Nd0.85La0.15Ba2Cu3O7-z,89.21
Tl1Sr2Ca2Cu3Oz,86.0
Tl0.8Sr2Ca2Cu3.2Oz,92.0
Tl0.6Sr2Ca2Cu3.4Oz,73.0
Tl0.4Sr2Ca2Cu3.6Oz,71.0
Tl0.6Sr2Ca2Cu3.4Oz,94.0
Bi2Sr2Ca1Cu2Oz,87.0
Bi2Sr2Ca1Cu2Oz,92.0
La1.5Pb0.5Cu1Oz,15.0
La1.5Pb0.47Sr0.03Cu1Oz,22.0
La1.5Pb0.45Sr0.05Cu1Oz,27.0
La1.5Pb0.42Sr0.08Cu1Oz,34.0
La1.5Pb0.4Sr0.1Cu1Oz,36.0
La1.5Pb0.35Sr0.15Cu1Oz,38.0
Bi2Sr2Ca1Cu2O8+z,85.05
Bi2Sr2Ca1Cu1.9Sn0.1O8+z,84.82
Bi2Sr2Ca1Cu1.8Sn0.2O8+z,84.5
Bi2Sr2Ca1Cu1.7Sn0.3O8+z,83.76
Bi2Sr2Ca1Cu1.6Sn0.4O8+z,82.34
Bi2Sr2Ca1Cu1.5Sn0.5O8+z,80.31
Cd0.67Bi0.23Pb0.1Sr2Y1Cu2O7-z,27.5
Bi2Sr2Ca1Cu2O8+z,84.7
Bi2Sr2Ca0.8Pr0.2Cu2O8+z,69.4
Bi2Sr2Ca0.6Pr0.4Cu2O8+z,43.5
Bi2Sr2Ca0.4Pr0.6Cu2O8+z,4.8
Y1Ba2Cu3Oz,91.9
Y1Ba1.95Na0.05Cu3Oz,91.4
Y1Ba1.9Na0.1Cu3Oz,88.4
Y1Ba1.85Na0.15Cu3Oz,90.3
Y1Ba1.8Na0.2Cu3Oz,90.8
Y1Ba1.95K0.05Cu3Oz,91.4
Y1Ba1.9K0.1Cu3Oz,77.3
Y1Ba1.85K0.15Cu3Oz,64.4
Y1Ba1.8K0.2Cu3Oz,71.0
La1.9Er0.1Ba2Ca0.2Cu4.2O9.85,18.0
La1.8Er0.2Ba2Ca0.4Cu4.4O10.371,40.0
La1.75Er0.25Ba2Ca0.5Cu4.5O10.662,66.0
La1.7Er0.3Ba2Ca0.6Cu4.6O10.92,70.0
La1.65Er0.35Ba2Ca0.7Cu4.7O11.166,71.0
La1.6Er0.4Ba2Ca0.8Cu4.8O11.424,76.0
La1.55Er0.45Ba2Ca0.9Cu4.9O11.664,76.0
La1.5Er0.5Ba2Ca1Cu5O11.907,78.0
La1Er1Ba2Ca2Cu6O14.122,79.0